# Force and moment coefficients
# dragDir     : (1.000000e+00 0.000000e+00 0.000000e+00)
# sideDir     : (0.000000e+00 1.000000e+00 0.000000e+00)
# liftDir     : (0.000000e+00 0.000000e+00 1.000000e+00)
# rollAxis    : (1.000000e+00 0.000000e+00 0.000000e+00)
# pitchAxis   : (0.000000e+00 1.000000e+00 0.000000e+00)
# yawAxis     : (0.000000e+00 0.000000e+00 1.000000e+00)
# magUInf     : 1.750000e+01
# lRef        : 1.854000e+00
# Aref        : 6.450000e-01
# CofR        : (1.000000e+00 0.000000e+00 0.000000e+00)
#
# Time        	Cd            	Cd(f)         	Cd(r)         	Cl            	Cl(f)         	Cl(r)         	CmPitch       	CmRoll        	CmYaw         	Cs            	Cs(f)         	Cs(r)         
1             	2.352927e-01	-1.279359e-01	3.632285e-01	-6.750704e-01	-9.310470e-01	2.559766e-01	-5.935118e-01	-2.455822e-01	-2.056592e-01	4.546772e-01	2.167946e-02	4.329978e-01
2             	3.582351e-01	-2.380147e-01	5.962498e-01	-4.666037e-01	-7.051906e-01	2.385869e-01	-4.718888e-01	-4.171323e-01	-5.601399e-01	1.178385e+00	2.905250e-02	1.149332e+00
3             	4.798087e-01	-3.323481e-01	8.121568e-01	-2.558862e-01	-4.889110e-01	2.330248e-01	-3.609679e-01	-5.722524e-01	-8.866796e-01	1.842117e+00	3.437908e-02	1.807738e+00
4             	5.388586e-01	-3.981683e-01	9.370269e-01	-9.061797e-02	-3.365407e-01	2.459227e-01	-2.912317e-01	-6.675976e-01	-1.088273e+00	2.266173e+00	4.481325e-02	2.221360e+00
5             	5.111437e-01	-4.352757e-01	9.464194e-01	9.000965e-03	-2.665001e-01	2.755011e-01	-2.710006e-01	-6.908476e-01	-1.135506e+00	2.396941e+00	6.296450e-02	2.333977e+00
6             	4.123309e-01	-4.478522e-01	8.601830e-01	5.453585e-02	-2.633708e-01	3.179067e-01	-2.906388e-01	-6.540176e-01	-1.056495e+00	2.284942e+00	8.597578e-02	2.198966e+00
7             	2.834847e-01	-4.420475e-01	7.255322e-01	6.633726e-02	-2.984969e-01	3.648341e-01	-3.316655e-01	-5.837898e-01	-9.107929e-01	2.037300e+00	1.078570e-01	1.929443e+00
8             	1.700033e-01	-4.237487e-01	5.937520e-01	6.786476e-02	-3.408141e-01	4.086789e-01	-3.747465e-01	-5.087504e-01	-7.615096e-01	1.768933e+00	1.229567e-01	1.645976e+00
9             	1.041366e-01	-3.984781e-01	5.026146e-01	7.623642e-02	-3.652928e-01	4.415292e-01	-4.034110e-01	-4.505464e-01	-6.547997e-01	1.565487e+00	1.279436e-01	1.437543e+00
10            	9.723478e-02	-3.709962e-01	4.682310e-01	9.900935e-02	-3.575951e-01	4.566045e-01	-4.070998e-01	-4.196136e-01	-6.111308e-01	1.467355e+00	1.225466e-01	1.344808e+00
11            	1.403049e-01	-3.451765e-01	4.854815e-01	1.351046e-01	-3.207467e-01	4.558512e-01	-3.882989e-01	-4.153290e-01	-6.258566e-01	1.471548e+00	1.099172e-01	1.361630e+00
12            	2.112902e-01	-3.240318e-01	5.353220e-01	1.766829e-01	-2.675013e-01	4.441842e-01	-3.558428e-01	-4.296769e-01	-6.787701e-01	1.545131e+00	9.379543e-02	1.451336e+00
13            	2.849365e-01	-3.088416e-01	5.937781e-01	2.183883e-01	-2.087005e-01	4.270888e-01	-3.178947e-01	-4.513098e-01	-7.444024e-01	1.644591e+00	7.789296e-02	1.566698e+00
14            	3.411456e-01	-2.995168e-01	6.406624e-01	2.567015e-01	-1.509978e-01	4.076992e-01	-2.793485e-01	-4.700896e-01	-8.015822e-01	1.732089e+00	6.446243e-02	1.667627e+00
15            	3.695411e-01	-2.952713e-01	6.648124e-01	2.882995e-01	-1.005195e-01	3.888191e-01	-2.446693e-01	-4.800419e-01	-8.376309e-01	1.784607e+00	5.467253e-02	1.729934e+00
16            	3.705947e-01	-2.943536e-01	6.649483e-01	3.123452e-01	-5.991380e-02	3.722590e-01	-2.160864e-01	-4.796509e-01	-8.500558e-01	1.796383e+00	4.813585e-02	1.748247e+00
17            	3.522446e-01	-2.949456e-01	6.471902e-01	3.297328e-01	-2.865043e-02	3.583832e-01	-1.935168e-01	-4.710679e-01	-8.438660e-01	1.775561e+00	4.391472e-02	1.731647e+00
18            	3.261354e-01	-2.951959e-01	6.213314e-01	3.426538e-01	-3.766470e-03	3.464202e-01	-1.750934e-01	-4.582637e-01	-8.279092e-01	1.737440e+00	4.081106e-02	1.696629e+00
19            	3.028293e-01	-2.937394e-01	5.965688e-01	3.544413e-01	1.888256e-02	3.355587e-01	-1.583381e-01	-4.451541e-01	-8.110737e-01	1.697764e+00	3.780856e-02	1.659956e+00
20            	2.892817e-01	-2.897877e-01	5.790694e-01	3.685466e-01	4.386888e-02	3.246777e-01	-1.404044e-01	-4.344286e-01	-7.997373e-01	1.668067e+00	3.429611e-02	1.633771e+00
21            	2.878679e-01	-2.834283e-01	5.712961e-01	3.861468e-01	7.297225e-02	3.131746e-01	-1.201012e-01	-4.273622e-01	-7.965899e-01	1.653353e+00	3.008649e-02	1.623266e+00
22            	2.966358e-01	-2.752977e-01	5.719335e-01	4.081300e-01	1.072127e-01	3.009172e-01	-9.685226e-02	-4.236156e-01	-8.010412e-01	1.652910e+00	2.541359e-02	1.627496e+00
23            	3.113728e-01	-2.662219e-01	5.775947e-01	4.341999e-01	1.461901e-01	2.880098e-01	-7.090984e-02	-4.219083e-01	-8.104145e-01	1.661942e+00	2.055652e-02	1.641386e+00
24            	3.273141e-01	-2.571184e-01	5.844324e-01	4.630674e-01	1.880112e-01	2.750561e-01	-4.352243e-02	-4.207754e-01	-8.213158e-01	1.674554e+00	1.596138e-02	1.658593e+00
25            	3.407049e-01	-2.486491e-01	5.893540e-01	4.933843e-01	2.307115e-01	2.626728e-01	-1.598064e-02	-4.190016e-01	-8.309179e-01	1.685688e+00	1.192628e-02	1.673762e+00
26            	3.496703e-01	-2.411692e-01	5.908395e-01	5.234370e-01	2.724691e-01	2.509679e-01	1.075057e-02	-4.160044e-01	-8.375774e-01	1.692336e+00	8.590821e-03	1.683746e+00
27            	3.540359e-01	-2.348027e-01	5.888386e-01	5.517005e-01	3.111294e-01	2.405711e-01	3.527912e-02	-4.118206e-01	-8.409683e-01	1.693890e+00	5.976685e-03	1.687913e+00
28            	3.548848e-01	-2.293648e-01	5.842496e-01	5.777695e-01	3.459820e-01	2.317876e-01	5.709720e-02	-4.068072e-01	-8.417195e-01	1.691495e+00	4.028048e-03	1.687467e+00
29            	3.539549e-01	-2.245131e-01	5.784680e-01	6.016018e-01	3.768483e-01	2.247535e-01	7.604743e-02	-4.014905e-01	-8.408469e-01	1.687007e+00	2.656457e-03	1.684350e+00
30            	3.528955e-01	-2.199774e-01	5.728728e-01	6.232505e-01	4.035645e-01	2.196861e-01	9.193920e-02	-3.964251e-01	-8.393454e-01	1.682398e+00	1.853599e-03	1.680544e+00
31            	3.529509e-01	-2.153832e-01	5.683342e-01	6.436377e-01	4.275001e-01	2.161376e-01	1.056812e-01	-3.918587e-01	-8.380128e-01	1.679084e+00	1.529091e-03	1.677555e+00
32            	3.545220e-01	-2.105298e-01	5.650518e-01	6.637834e-01	4.499646e-01	2.138188e-01	1.180729e-01	-3.877908e-01	-8.372226e-01	1.677701e+00	1.627869e-03	1.676073e+00
33            	3.575007e-01	-2.054923e-01	5.629931e-01	6.834301e-01	4.708092e-01	2.126209e-01	1.290941e-01	-3.842427e-01	-8.369391e-01	1.678063e+00	2.092453e-03	1.675971e+00
34            	3.614104e-01	-2.003127e-01	5.617231e-01	7.029812e-01	4.907950e-01	2.121861e-01	1.393044e-01	-3.810179e-01	-8.370385e-01	1.679654e+00	2.788327e-03	1.676865e+00
35            	3.657333e-01	-1.952275e-01	5.609608e-01	7.214883e-01	5.094075e-01	2.120807e-01	1.486634e-01	-3.780942e-01	-8.372305e-01	1.681622e+00	3.580498e-03	1.678041e+00
36            	3.700042e-01	-1.901890e-01	5.601932e-01	7.395673e-01	5.279159e-01	2.116514e-01	1.581323e-01	-3.751911e-01	-8.373971e-01	1.683347e+00	4.276627e-03	1.679071e+00
37            	3.739217e-01	-1.855549e-01	5.594766e-01	7.554517e-01	5.450504e-01	2.104013e-01	1.673246e-01	-3.725158e-01	-8.374913e-01	1.684418e+00	4.717659e-03	1.679700e+00
38            	3.773631e-01	-1.815686e-01	5.589318e-01	7.677820e-01	5.594128e-01	2.083692e-01	1.755218e-01	-3.702502e-01	-8.374651e-01	1.684648e+00	4.858727e-03	1.679789e+00
39            	3.803625e-01	-1.782907e-01	5.586532e-01	7.761591e-01	5.702622e-01	2.058970e-01	1.821826e-01	-3.684719e-01	-8.373499e-01	1.684181e+00	4.740504e-03	1.679440e+00
40            	3.831440e-01	-1.756910e-01	5.588351e-01	7.804630e-01	5.773166e-01	2.031463e-01	1.870852e-01	-3.672630e-01	-8.373174e-01	1.683366e+00	4.365668e-03	1.679001e+00
41            	3.859405e-01	-1.737720e-01	5.597126e-01	7.804494e-01	5.803559e-01	2.000935e-01	1.901312e-01	-3.667423e-01	-8.374956e-01	1.682450e+00	3.729433e-03	1.678721e+00
42            	3.889409e-01	-1.723543e-01	5.612952e-01	7.769673e-01	5.803441e-01	1.966232e-01	1.918604e-01	-3.668247e-01	-8.379981e-01	1.681602e+00	2.803013e-03	1.678799e+00
43            	3.923296e-01	-1.711649e-01	5.634945e-01	7.712585e-01	5.787716e-01	1.924869e-01	1.931424e-01	-3.673297e-01	-8.389956e-01	1.680972e+00	1.490313e-03	1.679481e+00
44            	3.961132e-01	-1.698818e-01	5.659950e-01	7.651662e-01	5.776479e-01	1.875183e-01	1.950648e-01	-3.679384e-01	-8.406025e-01	1.680636e+00	-2.843673e-04	1.680921e+00
45            	4.002885e-01	-1.683438e-01	5.686323e-01	7.595694e-01	5.775276e-01	1.820418e-01	1.977429e-01	-3.684881e-01	-8.427953e-01	1.680516e+00	-2.537400e-03	1.683053e+00
46            	4.047056e-01	-1.665061e-01	5.712118e-01	7.551018e-01	5.784273e-01	1.766745e-01	2.008764e-01	-3.688589e-01	-8.453735e-01	1.680511e+00	-5.118046e-03	1.685629e+00
47            	4.092363e-01	-1.644739e-01	5.737102e-01	7.515078e-01	5.794911e-01	1.720167e-01	2.037372e-01	-3.690921e-01	-8.480707e-01	1.680523e+00	-7.809286e-03	1.688332e+00
48            	4.137133e-01	-1.624266e-01	5.761399e-01	7.482977e-01	5.798330e-01	1.684646e-01	2.056842e-01	-3.692833e-01	-8.506887e-01	1.680604e+00	-1.038679e-02	1.690991e+00
49            	4.180749e-01	-1.605109e-01	5.785858e-01	7.448664e-01	5.786845e-01	1.661819e-01	2.062513e-01	-3.695483e-01	-8.531256e-01	1.680825e+00	-1.271300e-02	1.693538e+00
50            	4.222316e-01	-1.588391e-01	5.810708e-01	7.408377e-01	5.759678e-01	1.648699e-01	2.055489e-01	-3.699549e-01	-8.553196e-01	1.681144e+00	-1.474770e-02	1.695891e+00
51            	4.261387e-01	-1.574742e-01	5.836129e-01	7.359918e-01	5.720318e-01	1.639600e-01	2.040359e-01	-3.705436e-01	-8.572572e-01	1.681516e+00	-1.649897e-02	1.698015e+00
52            	4.297301e-01	-1.564660e-01	5.861961e-01	7.302650e-01	5.675173e-01	1.627476e-01	2.023849e-01	-3.713311e-01	-8.589816e-01	1.681884e+00	-1.803971e-02	1.699923e+00
53            	4.329569e-01	-1.558195e-01	5.887765e-01	7.237851e-01	5.631556e-01	1.606295e-01	2.012631e-01	-3.722980e-01	-8.605472e-01	1.682184e+00	-1.945542e-02	1.701639e+00
54            	4.357959e-01	-1.555695e-01	5.913654e-01	7.163300e-01	5.590062e-01	1.573238e-01	2.008412e-01	-3.734675e-01	-8.619993e-01	1.682325e+00	-2.083654e-02	1.703162e+00
55            	4.382739e-01	-1.557562e-01	5.940302e-01	7.075644e-01	5.548828e-01	1.526816e-01	2.011006e-01	-3.748932e-01	-8.633919e-01	1.682262e+00	-2.226080e-02	1.704523e+00
56            	4.404192e-01	-1.563614e-01	5.967806e-01	6.974113e-01	5.504771e-01	1.469342e-01	2.017714e-01	-3.765710e-01	-8.647049e-01	1.681930e+00	-2.373969e-02	1.705670e+00
57            	4.423061e-01	-1.573240e-01	5.996301e-01	6.859501e-01	5.454324e-01	1.405178e-01	2.024573e-01	-3.784771e-01	-8.658786e-01	1.681309e+00	-2.522406e-02	1.706533e+00
58            	4.439856e-01	-1.585481e-01	6.025336e-01	6.735278e-01	5.394082e-01	1.341195e-01	2.026444e-01	-3.805408e-01	-8.668198e-01	1.680438e+00	-2.660088e-02	1.707039e+00
59            	4.455523e-01	-1.598890e-01	6.054414e-01	6.606938e-01	5.323318e-01	1.283619e-01	2.019850e-01	-3.826652e-01	-8.674494e-01	1.679392e+00	-2.775351e-02	1.707145e+00
60            	4.470642e-01	-1.611776e-01	6.082418e-01	6.482606e-01	5.246771e-01	1.235835e-01	2.005468e-01	-3.847097e-01	-8.677232e-01	1.678288e+00	-2.857897e-02	1.706867e+00
61            	4.486380e-01	-1.623514e-01	6.109894e-01	6.362907e-01	5.164343e-01	1.198564e-01	1.982889e-01	-3.866704e-01	-8.676275e-01	1.677210e+00	-2.902263e-02	1.706232e+00
62            	4.503775e-01	-1.634235e-01	6.138010e-01	6.244826e-01	5.074475e-01	1.170351e-01	1.952062e-01	-3.886123e-01	-8.671444e-01	1.676158e+00	-2.906524e-02	1.705224e+00
63            	4.523268e-01	-1.644477e-01	6.167745e-01	6.124567e-01	4.975806e-01	1.148761e-01	1.913522e-01	-3.906111e-01	-8.662645e-01	1.675005e+00	-2.876190e-02	1.703767e+00
64            	4.545013e-01	-1.655410e-01	6.200423e-01	5.995353e-01	4.864198e-01	1.131156e-01	1.866521e-01	-3.927916e-01	-8.650097e-01	1.673633e+00	-2.819319e-02	1.701826e+00
65            	4.568874e-01	-1.667461e-01	6.236335e-01	5.855009e-01	4.740363e-01	1.114646e-01	1.812858e-01	-3.951898e-01	-8.634182e-01	1.671901e+00	-2.746786e-02	1.699368e+00
66            	4.594718e-01	-1.680969e-01	6.275687e-01	5.702134e-01	4.604481e-01	1.097653e-01	1.753414e-01	-3.978328e-01	-8.615621e-01	1.669744e+00	-2.669026e-02	1.696434e+00
67            	4.622568e-01	-1.695183e-01	6.317751e-01	5.540817e-01	4.460649e-01	1.080168e-01	1.690241e-01	-4.006467e-01	-8.595515e-01	1.667202e+00	-2.595026e-02	1.693153e+00
68            	4.652916e-01	-1.709105e-01	6.362020e-01	5.375219e-01	4.312879e-01	1.062340e-01	1.625269e-01	-4.035562e-01	-8.575041e-01	1.664344e+00	-2.533216e-02	1.689676e+00
69            	4.686489e-01	-1.721195e-01	6.407684e-01	5.211936e-01	4.167277e-01	1.044658e-01	1.561310e-01	-4.064440e-01	-8.555500e-01	1.661276e+00	-2.491185e-02	1.686188e+00
70            	4.723376e-01	-1.730708e-01	6.454084e-01	5.054150e-01	4.026858e-01	1.027292e-01	1.499783e-01	-4.092396e-01	-8.537760e-01	1.658059e+00	-2.474638e-02	1.682806e+00
71            	4.763589e-01	-1.736829e-01	6.500418e-01	4.905308e-01	3.894750e-01	1.010558e-01	1.442096e-01	-4.118623e-01	-8.522329e-01	1.654759e+00	-2.485311e-02	1.679613e+00
72            	4.807145e-01	-1.738866e-01	6.546010e-01	4.767593e-01	3.772158e-01	9.954348e-02	1.388362e-01	-4.142438e-01	-8.509166e-01	1.651361e+00	-2.523597e-02	1.676597e+00
73            	4.853698e-01	-1.737244e-01	6.590942e-01	4.639297e-01	3.658149e-01	9.811478e-02	1.338501e-01	-4.164093e-01	-8.498307e-01	1.647933e+00	-2.586405e-02	1.673797e+00
74            	4.902333e-01	-1.732369e-01	6.634702e-01	4.519914e-01	3.552777e-01	9.671363e-02	1.292820e-01	-4.183535e-01	-8.488751e-01	1.644393e+00	-2.667849e-02	1.671072e+00
75            	4.952333e-01	-1.724874e-01	6.677207e-01	4.408490e-01	3.455840e-01	9.526495e-02	1.251596e-01	-4.201041e-01	-8.480446e-01	1.640844e+00	-2.762230e-02	1.668467e+00
76            	5.002683e-01	-1.715335e-01	6.718019e-01	4.305957e-01	3.368011e-01	9.379465e-02	1.215032e-01	-4.216677e-01	-8.473193e-01	1.637407e+00	-2.861565e-02	1.666023e+00
77            	5.052629e-01	-1.704503e-01	6.757132e-01	4.211362e-01	3.286767e-01	9.245944e-02	1.181086e-01	-4.230818e-01	-8.466889e-01	1.634195e+00	-2.959127e-02	1.663787e+00
78            	5.102186e-01	-1.692505e-01	6.794691e-01	4.125305e-01	3.210970e-01	9.143346e-02	1.148318e-01	-4.243598e-01	-8.462343e-01	1.631364e+00	-3.055247e-02	1.661916e+00
79            	5.151383e-01	-1.679326e-01	6.830709e-01	4.049526e-01	3.140379e-01	9.091472e-02	1.115616e-01	-4.255017e-01	-8.460286e-01	1.629076e+00	-3.149049e-02	1.660567e+00
80            	5.198676e-01	-1.665073e-01	6.863750e-01	3.987233e-01	3.076695e-01	9.105377e-02	1.083079e-01	-4.264412e-01	-8.460264e-01	1.627256e+00	-3.239825e-02	1.659655e+00
81            	5.243716e-01	-1.649176e-01	6.892892e-01	3.942231e-01	3.022998e-01	9.192332e-02	1.051882e-01	-4.271034e-01	-8.461964e-01	1.625820e+00	-3.328663e-02	1.659106e+00
82            	5.286700e-01	-1.631848e-01	6.918548e-01	3.913284e-01	2.979142e-01	9.341428e-02	1.022499e-01	-4.275198e-01	-8.465596e-01	1.624783e+00	-3.416781e-02	1.658951e+00
83            	5.327194e-01	-1.613476e-01	6.940669e-01	3.898744e-01	2.944643e-01	9.541006e-02	9.952712e-02	-4.277072e-01	-8.470774e-01	1.624026e+00	-3.506430e-02	1.659090e+00
84            	5.365429e-01	-1.594027e-01	6.959455e-01	3.897600e-01	2.921369e-01	9.762314e-02	9.725688e-02	-4.276741e-01	-8.477794e-01	1.623546e+00	-3.600620e-02	1.659553e+00
85            	5.401335e-01	-1.573123e-01	6.974458e-01	3.911678e-01	2.913864e-01	9.978149e-02	9.580243e-02	-4.273790e-01	-8.486931e-01	1.623352e+00	-3.701725e-02	1.660369e+00
86            	5.434690e-01	-1.550571e-01	6.985261e-01	3.941861e-01	2.924497e-01	1.017364e-01	9.535661e-02	-4.267916e-01	-8.498488e-01	1.623457e+00	-3.812039e-02	1.661577e+00
87            	5.465254e-01	-1.526135e-01	6.991389e-01	3.989324e-01	2.954636e-01	1.034689e-01	9.599734e-02	-4.258762e-01	-8.512471e-01	1.623905e+00	-3.929455e-02	1.663200e+00
88            	5.492854e-01	-1.500203e-01	6.993057e-01	4.051689e-01	3.002180e-01	1.049509e-01	9.763353e-02	-4.246630e-01	-8.528498e-01	1.624723e+00	-4.048835e-02	1.665211e+00
89            	5.517589e-01	-1.473828e-01	6.991417e-01	4.122223e-01	3.060022e-01	1.062201e-01	9.989102e-02	-4.232623e-01	-8.545998e-01	1.625894e+00	-4.165291e-02	1.667547e+00
90            	5.539643e-01	-1.447839e-01	6.987482e-01	4.195742e-01	3.122760e-01	1.072981e-01	1.024890e-01	-4.217661e-01	-8.564431e-01	1.627406e+00	-4.273990e-02	1.670146e+00
91            	5.559614e-01	-1.423028e-01	6.982641e-01	4.266295e-01	3.184474e-01	1.081821e-01	1.051326e-01	-4.202834e-01	-8.583308e-01	1.629247e+00	-4.370731e-02	1.672954e+00
92            	5.577883e-01	-1.399987e-01	6.977870e-01	4.328494e-01	3.240398e-01	1.088095e-01	1.076152e-01	-4.188929e-01	-8.601702e-01	1.631299e+00	-4.452057e-02	1.675820e+00
93            	5.594663e-01	-1.379178e-01	6.973841e-01	4.378373e-01	3.287895e-01	1.090477e-01	1.098709e-01	-4.176510e-01	-8.618482e-01	1.633401e+00	-4.514792e-02	1.678548e+00
94            	5.610392e-01	-1.360697e-01	6.971089e-01	4.413413e-01	3.326096e-01	1.087317e-01	1.119390e-01	-4.165893e-01	-8.632966e-01	1.635383e+00	-4.560522e-02	1.680988e+00
95            	5.625334e-01	-1.344503e-01	6.969836e-01	4.432898e-01	3.355687e-01	1.077211e-01	1.139238e-01	-4.157170e-01	-8.644803e-01	1.637137e+00	-4.591179e-02	1.683049e+00
96            	5.639811e-01	-1.330098e-01	6.969909e-01	4.438889e-01	3.378695e-01	1.060194e-01	1.159250e-01	-4.150003e-01	-8.653798e-01	1.638598e+00	-4.608085e-02	1.684679e+00
97            	5.654014e-01	-1.317264e-01	6.971278e-01	4.433417e-01	3.396442e-01	1.036975e-01	1.179733e-01	-4.144271e-01	-8.660180e-01	1.639784e+00	-4.612619e-02	1.685910e+00
98            	5.667755e-01	-1.305780e-01	6.973535e-01	4.418592e-01	3.410078e-01	1.008514e-01	1.200782e-01	-4.139657e-01	-8.663806e-01	1.640652e+00	-4.605439e-02	1.686707e+00
99            	5.681187e-01	-1.295781e-01	6.976969e-01	4.394330e-01	3.418593e-01	9.757374e-02	1.221428e-01	-4.136375e-01	-8.665228e-01	1.641257e+00	-4.589451e-02	1.687151e+00
100           	5.694379e-01	-1.287335e-01	6.981715e-01	4.360431e-01	3.420244e-01	9.401873e-02	1.240028e-01	-4.134525e-01	-8.664943e-01	1.641620e+00	-4.568424e-02	1.687304e+00
101           	5.706940e-01	-1.280637e-01	6.987577e-01	4.317096e-01	3.413328e-01	9.037688e-02	1.254779e-01	-4.134107e-01	-8.662962e-01	1.641746e+00	-4.542310e-02	1.687169e+00
102           	5.718609e-01	-1.276216e-01	6.994825e-01	4.263730e-01	3.394959e-01	8.687709e-02	1.263094e-01	-4.135520e-01	-8.659487e-01	1.641687e+00	-4.510525e-02	1.686792e+00
103           	5.728711e-01	-1.274637e-01	7.003347e-01	4.199724e-01	3.363188e-01	8.365359e-02	1.263326e-01	-4.138992e-01	-8.654464e-01	1.641420e+00	-4.473655e-02	1.686156e+00
104           	5.737331e-01	-1.276252e-01	7.013583e-01	4.123487e-01	3.316093e-01	8.073939e-02	1.254349e-01	-4.144917e-01	-8.648125e-01	1.640915e+00	-4.435495e-02	1.685270e+00
105           	5.745053e-01	-1.280945e-01	7.025998e-01	4.034154e-01	3.253140e-01	7.810134e-02	1.236063e-01	-4.153472e-01	-8.640701e-01	1.640124e+00	-4.400789e-02	1.684132e+00
106           	5.752622e-01	-1.288098e-01	7.040721e-01	3.932921e-01	3.175626e-01	7.572957e-02	1.209165e-01	-4.164409e-01	-8.632371e-01	1.638997e+00	-4.373869e-02	1.682736e+00
107           	5.760726e-01	-1.297079e-01	7.057805e-01	3.821877e-01	3.085953e-01	7.359245e-02	1.175014e-01	-4.177442e-01	-8.623502e-01	1.637546e+00	-4.357724e-02	1.681123e+00
108           	5.770289e-01	-1.307061e-01	7.077350e-01	3.704131e-01	2.987185e-01	7.169460e-02	1.135119e-01	-4.192205e-01	-8.614773e-01	1.635852e+00	-4.355123e-02	1.679403e+00
109           	5.781820e-01	-1.317268e-01	7.099088e-01	3.583533e-01	2.882824e-01	7.007087e-02	1.091058e-01	-4.208178e-01	-8.606744e-01	1.633993e+00	-4.367776e-02	1.677671e+00
110           	5.795589e-01	-1.326918e-01	7.122507e-01	3.464597e-01	2.777179e-01	6.874180e-02	1.044881e-01	-4.224712e-01	-8.599928e-01	1.632072e+00	-4.395681e-02	1.676029e+00
111           	5.811060e-01	-1.335621e-01	7.146681e-01	3.351233e-01	2.673333e-01	6.778998e-02	9.977164e-02	-4.241151e-01	-8.594384e-01	1.630163e+00	-4.435705e-02	1.674520e+00
112           	5.827566e-01	-1.343085e-01	7.170652e-01	3.246927e-01	2.573981e-01	6.729458e-02	9.505176e-02	-4.256868e-01	-8.589975e-01	1.628315e+00	-4.484005e-02	1.673155e+00
113           	5.844493e-01	-1.348817e-01	7.193309e-01	3.155118e-01	2.481797e-01	6.733210e-02	9.042379e-02	-4.271063e-01	-8.586058e-01	1.626506e+00	-4.535267e-02	1.671859e+00
114           	5.861181e-01	-1.352979e-01	7.214161e-01	3.076680e-01	2.397929e-01	6.787503e-02	8.595895e-02	-4.283570e-01	-8.582256e-01	1.624749e+00	-4.585099e-02	1.670600e+00
115           	5.877153e-01	-1.355577e-01	7.232730e-01	3.012212e-01	2.323973e-01	6.882387e-02	8.178673e-02	-4.294154e-01	-8.577995e-01	1.623022e+00	-4.628872e-02	1.669310e+00
116           	5.891842e-01	-1.356205e-01	7.248047e-01	2.964567e-01	2.264068e-01	7.004991e-02	7.817843e-02	-4.302126e-01	-8.572832e-01	1.621303e+00	-4.663163e-02	1.667935e+00
117           	5.904772e-01	-1.354643e-01	7.259415e-01	2.934525e-01	2.220177e-01	7.143482e-02	7.529144e-02	-4.307029e-01	-8.566144e-01	1.619530e+00	-4.684933e-02	1.666379e+00
118           	5.915602e-01	-1.350880e-01	7.266482e-01	2.922748e-01	2.193223e-01	7.295241e-02	7.318496e-02	-4.308681e-01	-8.557947e-01	1.617743e+00	-4.692294e-02	1.664666e+00
119           	5.923811e-01	-1.345215e-01	7.269026e-01	2.929233e-01	2.182747e-01	7.464861e-02	7.181304e-02	-4.307120e-01	-8.548269e-01	1.615972e+00	-4.684065e-02	1.662813e+00
120           	5.928650e-01	-1.337943e-01	7.266593e-01	2.955521e-01	2.190322e-01	7.651995e-02	7.125612e-02	-4.302268e-01	-8.537517e-01	1.614290e+00	-4.660642e-02	1.660897e+00
121           	5.930300e-01	-1.329310e-01	7.259610e-01	3.000842e-01	2.215064e-01	7.857786e-02	7.146426e-02	-4.294460e-01	-8.526019e-01	1.612737e+00	-4.623353e-02	1.658970e+00
122           	5.929107e-01	-1.319219e-01	7.248326e-01	3.065630e-01	2.257617e-01	8.080129e-02	7.248018e-02	-4.283772e-01	-8.514280e-01	1.611355e+00	-4.575040e-02	1.657106e+00
123           	5.925573e-01	-1.307550e-01	7.233123e-01	3.149207e-01	2.317016e-01	8.321911e-02	7.424123e-02	-4.270336e-01	-8.502650e-01	1.610136e+00	-4.519710e-02	1.655333e+00
124           	5.920556e-01	-1.294242e-01	7.214798e-01	3.250412e-01	2.392330e-01	8.580811e-02	7.671247e-02	-4.254520e-01	-8.491845e-01	1.609137e+00	-4.461588e-02	1.653753e+00
125           	5.914877e-01	-1.279435e-01	7.194311e-01	3.366246e-01	2.480678e-01	8.855690e-02	7.975543e-02	-4.236873e-01	-8.482447e-01	1.608383e+00	-4.405325e-02	1.652436e+00
126           	5.909043e-01	-1.263273e-01	7.172316e-01	3.494311e-01	2.579430e-01	9.148811e-02	8.322743e-02	-4.217795e-01	-8.474998e-01	1.607917e+00	-4.354155e-02	1.651458e+00
127           	5.902941e-01	-1.246299e-01	7.149240e-01	3.631767e-01	2.685379e-01	9.463879e-02	8.694957e-02	-4.197770e-01	-8.469727e-01	1.607756e+00	-4.309467e-02	1.650851e+00
128           	5.896501e-01	-1.228943e-01	7.125444e-01	3.775701e-01	2.795803e-01	9.798988e-02	9.079520e-02	-4.177193e-01	-8.466887e-01	1.607921e+00	-4.272814e-02	1.650649e+00
129           	5.889983e-01	-1.211448e-01	7.101431e-01	3.923319e-01	2.908978e-01	1.014341e-01	9.473184e-02	-4.156439e-01	-8.466572e-01	1.608397e+00	-4.245879e-02	1.650856e+00
130           	5.883582e-01	-1.194436e-01	7.078018e-01	4.070260e-01	3.022147e-01	1.048113e-01	9.870168e-02	-4.136227e-01	-8.468776e-01	1.609187e+00	-4.228418e-02	1.651471e+00
131           	5.877616e-01	-1.178030e-01	7.055646e-01	4.213246e-01	3.132753e-01	1.080493e-01	1.026130e-01	-4.116838e-01	-8.473078e-01	1.610218e+00	-4.219876e-02	1.652417e+00
132           	5.872864e-01	-1.161896e-01	7.034760e-01	4.351139e-01	3.239922e-01	1.111217e-01	1.064352e-01	-4.098328e-01	-8.479250e-01	1.611438e+00	-4.220610e-02	1.653644e+00
133           	5.869760e-01	-1.145516e-01	7.015276e-01	4.484500e-01	3.344330e-01	1.140170e-01	1.102080e-01	-4.080396e-01	-8.486973e-01	1.612775e+00	-4.230976e-02	1.655085e+00
134           	5.868802e-01	-1.128083e-01	6.996885e-01	4.616264e-01	3.448642e-01	1.167622e-01	1.140510e-01	-4.062484e-01	-8.496167e-01	1.614167e+00	-4.253306e-02	1.656700e+00
135           	5.870243e-01	-1.108890e-01	6.979133e-01	4.748802e-01	3.554251e-01	1.194551e-01	1.179850e-01	-4.044012e-01	-8.506638e-01	1.615545e+00	-4.289128e-02	1.658436e+00
136           	5.874559e-01	-1.087617e-01	6.962176e-01	4.881627e-01	3.660913e-01	1.220714e-01	1.220099e-01	-4.024896e-01	-8.518432e-01	1.616835e+00	-4.342586e-02	1.660261e+00
137           	5.881632e-01	-1.064256e-01	6.945888e-01	5.013287e-01	3.767318e-01	1.245969e-01	1.260675e-01	-4.005072e-01	-8.531296e-01	1.617906e+00	-4.417658e-02	1.662083e+00
138           	5.891235e-01	-1.039355e-01	6.930590e-01	5.140954e-01	3.871484e-01	1.269470e-01	1.301007e-01	-3.984973e-01	-8.544998e-01	1.618675e+00	-4.516203e-02	1.663838e+00
139           	5.902798e-01	-1.013881e-01	6.916679e-01	5.260368e-01	3.970036e-01	1.290332e-01	1.339852e-01	-3.965280e-01	-8.559289e-01	1.619117e+00	-4.637036e-02	1.665487e+00
140           	5.915571e-01	-9.890057e-02	6.904577e-01	5.367007e-01	4.060439e-01	1.306568e-01	1.376935e-01	-3.946791e-01	-8.573936e-01	1.619258e+00	-4.776466e-02	1.667023e+00
141           	5.929016e-01	-9.651484e-02	6.894165e-01	5.460294e-01	4.142894e-01	1.317400e-01	1.412747e-01	-3.929657e-01	-8.588736e-01	1.619135e+00	-4.930623e-02	1.668441e+00
142           	5.942432e-01	-9.427160e-02	6.885148e-01	5.539892e-01	4.217678e-01	1.322214e-01	1.447732e-01	-3.913932e-01	-8.603385e-01	1.618774e+00	-5.095133e-02	1.669726e+00
143           	5.955130e-01	-9.219455e-02	6.877076e-01	5.605333e-01	4.285386e-01	1.319947e-01	1.482720e-01	-3.899511e-01	-8.617398e-01	1.618173e+00	-5.265326e-02	1.670826e+00
144           	5.966845e-01	-9.031796e-02	6.870025e-01	5.655743e-01	4.344820e-01	1.310923e-01	1.516949e-01	-3.886602e-01	-8.630547e-01	1.617387e+00	-5.436120e-02	1.671748e+00
145           	5.977527e-01	-8.867108e-02	6.864238e-01	5.690088e-01	4.394593e-01	1.295495e-01	1.549549e-01	-3.875474e-01	-8.642734e-01	1.616479e+00	-5.603366e-02	1.672513e+00
146           	5.987274e-01	-8.725365e-02	6.859811e-01	5.708456e-01	4.433904e-01	1.274552e-01	1.579676e-01	-3.866174e-01	-8.653626e-01	1.615500e+00	-5.761281e-02	1.673112e+00
147           	5.996221e-01	-8.605599e-02	6.856781e-01	5.710937e-01	4.462097e-01	1.248840e-01	1.606629e-01	-3.858670e-01	-8.662898e-01	1.614491e+00	-5.904408e-02	1.673536e+00
148           	6.004163e-01	-8.509875e-02	6.855150e-01	5.697189e-01	4.478562e-01	1.218628e-01	1.629967e-01	-3.853069e-01	-8.670342e-01	1.613516e+00	-6.027599e-02	1.673792e+00
149           	6.010821e-01	-8.437530e-02	6.854574e-01	5.669416e-01	4.484784e-01	1.184632e-01	1.650076e-01	-3.849163e-01	-8.675797e-01	1.612616e+00	-6.127161e-02	1.673888e+00
150           	6.016133e-01	-8.387682e-02	6.854901e-01	5.629266e-01	4.481574e-01	1.147692e-01	1.666941e-01	-3.846835e-01	-8.679343e-01	1.611835e+00	-6.201699e-02	1.673852e+00
151           	6.020361e-01	-8.358306e-02	6.856192e-01	5.577787e-01	4.469528e-01	1.108258e-01	1.680635e-01	-3.846011e-01	-8.680853e-01	1.611156e+00	-6.250740e-02	1.673663e+00
152           	6.024074e-01	-8.342973e-02	6.858372e-01	5.518503e-01	4.450642e-01	1.067861e-01	1.691390e-01	-3.846334e-01	-8.680512e-01	1.610585e+00	-6.275885e-02	1.673344e+00
153           	6.027585e-01	-8.339374e-02	6.861522e-01	5.453420e-01	4.425256e-01	1.028164e-01	1.698546e-01	-3.847730e-01	-8.678292e-01	1.610100e+00	-6.277919e-02	1.672879e+00
154           	6.030831e-01	-8.343309e-02	6.865162e-01	5.386404e-01	4.395167e-01	9.912374e-02	1.701965e-01	-3.849746e-01	-8.674213e-01	1.609686e+00	-6.257854e-02	1.672264e+00
155           	6.033772e-01	-8.351074e-02	6.868879e-01	5.320660e-01	4.361587e-01	9.590732e-02	1.701257e-01	-3.851993e-01	-8.668376e-01	1.609330e+00	-6.217271e-02	1.671503e+00
156           	6.036149e-01	-8.363880e-02	6.872537e-01	5.256983e-01	4.324228e-01	9.327547e-02	1.695737e-01	-3.854463e-01	-8.660800e-01	1.609006e+00	-6.157714e-02	1.670583e+00
157           	6.037615e-01	-8.384750e-02	6.876090e-01	5.195192e-01	4.282590e-01	9.126025e-02	1.684994e-01	-3.857283e-01	-8.651633e-01	1.608688e+00	-6.081921e-02	1.669507e+00
158           	6.037943e-01	-8.416654e-02	6.879608e-01	5.135056e-01	4.236729e-01	8.983273e-02	1.669201e-01	-3.860637e-01	-8.641378e-01	1.608382e+00	-5.994674e-02	1.668329e+00
159           	6.037392e-01	-8.458772e-02	6.883269e-01	5.076411e-01	4.187183e-01	8.892287e-02	1.648977e-01	-3.864573e-01	-8.630322e-01	1.608080e+00	-5.899214e-02	1.667072e+00
160           	6.035981e-01	-8.512393e-02	6.887220e-01	5.018567e-01	4.134553e-01	8.840137e-02	1.625270e-01	-3.869230e-01	-8.618996e-01	1.607800e+00	-5.799966e-02	1.665800e+00
161           	6.033831e-01	-8.575893e-02	6.891420e-01	4.962481e-01	4.080635e-01	8.818454e-02	1.599395e-01	-3.874505e-01	-8.608005e-01	1.607607e+00	-5.699717e-02	1.664604e+00
162           	6.031042e-01	-8.648320e-02	6.895874e-01	4.907515e-01	4.025957e-01	8.815586e-02	1.572199e-01	-3.880353e-01	-8.597609e-01	1.607481e+00	-5.602021e-02	1.663502e+00
163           	6.027799e-01	-8.727231e-02	6.900522e-01	4.853656e-01	3.971294e-01	8.823616e-02	1.544466e-01	-3.886622e-01	-8.587954e-01	1.607421e+00	-5.508479e-02	1.662506e+00
164           	6.024205e-01	-8.810614e-02	6.905267e-01	4.800978e-01	3.917189e-01	8.837896e-02	1.516700e-01	-3.893164e-01	-8.579189e-01	1.607447e+00	-5.419562e-02	1.661642e+00
165           	6.020148e-01	-8.897896e-02	6.909937e-01	4.749063e-01	3.863526e-01	8.855369e-02	1.488994e-01	-3.899863e-01	-8.571207e-01	1.607510e+00	-5.336567e-02	1.660876e+00
166           	6.015649e-01	-8.989580e-02	6.914607e-01	4.696985e-01	3.809897e-01	8.870878e-02	1.461405e-01	-3.906783e-01	-8.563950e-01	1.607573e+00	-5.260857e-02	1.660181e+00
167           	6.010981e-01	-9.088501e-02	6.919831e-01	4.642275e-01	3.754600e-01	8.876754e-02	1.433462e-01	-3.914341e-01	-8.557311e-01	1.607611e+00	-5.192537e-02	1.659537e+00