# Solver information
# Time        	U_solver      	Ux_initial    	Ux_final      	Ux_iters      	Uy_initial    	Uy_final      	Uy_iters      	Uz_initial    	Uz_final      	Uz_iters      	U_converged   	k_solver      	k_initial     	k_final       	k_iters       	k_converged   	omega_solver  	omega_initial 	omega_final   	omega_iters   	omega_converged	p_solver      	p_initial     	p_final       	p_iters       	p_converged   
1             	DILUPBiCGStab	6.947060e-02	2.898860e-04	2	9.299590e-02	3.020680e-04	2	2.902000e-01	9.572560e-04	2	false	DILUPBiCGStab	1.000000e+00	3.161790e-03	2	true	DILUPBiCGStab	4.566840e-03	1.288020e-05	2	true	GAMGPCG	2.163690e-01	6.576060e-04	4	true
2             	DILUPBiCGStab	5.312670e-02	2.353470e-04	2	4.351910e-02	1.885240e-04	2	1.785100e-01	1.771910e-03	2	false	DILUPBiCGStab	1.251150e-01	4.003410e-04	2	true	DILUPBiCGStab	1.772790e-03	8.582790e-06	2	true	GAMGPCG	2.617270e-01	2.265290e-03	3	true
3             	DILUPBiCGStab	4.624470e-02	1.678050e-04	3	2.433100e-02	1.149410e-04	2	1.195460e-01	4.266740e-04	2	false	DILUPBiCGStab	5.216990e-02	4.954960e-04	2	true	DILUPBiCGStab	2.052510e-03	7.638150e-06	2	true	GAMGPCG	2.541310e-01	9.385970e-04	4	true
4             	DILUPBiCGStab	4.420590e-02	3.939860e-04	2	1.810380e-02	9.842480e-05	3	8.439000e-02	3.702800e-04	2	false	DILUPBiCGStab	3.108280e-02	2.802930e-04	2	true	DILUPBiCGStab	2.198560e-03	6.952000e-06	2	true	GAMGPCG	1.858330e-01	1.337060e-03	3	true
5             	DILUPBiCGStab	4.187080e-02	3.357010e-04	2	1.866980e-02	1.060160e-04	3	6.809520e-02	1.347460e-04	3	false	DILUPBiCGStab	2.152590e-02	2.052360e-04	2	true	DILUPBiCGStab	2.277870e-03	6.297340e-06	2	true	GAMGPCG	1.570300e-01	1.426240e-03	3	true
6             	DILUPBiCGStab	3.630430e-02	2.341850e-04	2	1.750330e-02	8.518420e-05	2	5.893440e-02	4.340000e-04	2	false	DILUPBiCGStab	1.637260e-02	1.565260e-04	2	true	DILUPBiCGStab	2.363450e-03	5.976580e-06	2	true	GAMGPCG	1.556440e-01	9.163540e-04	3	true
7             	DILUPBiCGStab	2.957700e-02	1.427920e-04	2	1.470160e-02	6.255870e-05	2	5.037470e-02	9.867570e-05	3	false	DILUPBiCGStab	1.308680e-02	1.167300e-04	2	true	DILUPBiCGStab	2.387960e-03	5.710950e-06	2	true	GAMGPCG	1.635580e-01	6.515270e-04	4	true
8             	DILUPBiCGStab	2.464340e-02	1.044760e-04	2	1.183700e-02	4.993050e-05	2	4.210430e-02	7.223490e-05	3	false	DILUPBiCGStab	1.074060e-02	8.764300e-05	2	true	DILUPBiCGStab	2.296320e-03	2.281840e-05	2	true	GAMGPCG	1.732630e-01	1.234430e-03	3	true
9             	DILUPBiCGStab	2.352050e-02	1.169750e-04	2	1.054110e-02	4.855590e-05	2	3.499770e-02	5.407830e-05	3	false	DILUPBiCGStab	9.037060e-03	7.466520e-05	2	true	DILUPBiCGStab	2.154960e-03	2.094450e-05	2	true	GAMGPCG	1.826520e-01	6.883740e-04	4	true
10            	DILUPBiCGStab	2.370590e-02	1.357830e-04	2	1.108170e-02	6.773800e-05	3	3.037200e-02	4.821630e-05	3	false	DILUPBiCGStab	7.739080e-03	6.021200e-05	2	true	DILUPBiCGStab	1.995000e-03	1.863590e-05	2	true	GAMGPCG	1.915630e-01	9.685600e-04	3	true
11            	DILUPBiCGStab	2.309960e-02	1.064860e-04	2	1.157470e-02	2.972200e-05	3	2.716360e-02	2.314780e-04	2	false	DILUPBiCGStab	6.814670e-03	5.398490e-05	2	true	DILUPBiCGStab	1.843390e-03	1.731510e-05	2	true	GAMGPCG	1.968450e-01	1.519740e-03	3	true
12            	DILUPBiCGStab	2.135620e-02	9.217780e-05	2	1.134990e-02	2.780220e-05	3	2.502360e-02	1.533430e-04	2	false	DILUPBiCGStab	6.228800e-03	5.258550e-05	2	true	DILUPBiCGStab	1.719310e-03	1.621460e-05	2	true	GAMGPCG	1.945270e-01	8.442750e-04	3	true
13            	DILUPBiCGStab	1.917030e-02	8.311220e-05	2	1.063540e-02	1.939700e-05	3	2.354650e-02	1.831810e-04	2	false	DILUPBiCGStab	5.839150e-03	5.035450e-05	2	true	DILUPBiCGStab	1.605260e-03	1.526530e-05	2	true	GAMGPCG	1.850320e-01	1.813330e-03	3	true
14            	DILUPBiCGStab	1.728810e-02	9.916960e-05	3	9.933510e-03	4.220240e-05	2	2.220090e-02	2.093390e-04	2	false	DILUPBiCGStab	5.687850e-03	5.439510e-05	2	true	DILUPBiCGStab	1.514150e-03	1.499550e-05	2	true	GAMGPCG	1.735270e-01	7.563000e-04	3	true
15            	DILUPBiCGStab	1.601060e-02	6.612040e-05	3	9.502430e-03	3.966480e-05	2	2.078600e-02	1.427910e-04	2	false	DILUPBiCGStab	5.645320e-03	2.757380e-05	2	true	DILUPBiCGStab	1.452300e-03	2.712040e-06	2	true	GAMGPCG	1.638930e-01	1.330160e-03	3	true
16            	DILUPBiCGStab	1.498310e-02	6.971720e-05	3	9.256450e-03	3.819850e-05	2	1.937200e-02	9.401110e-05	2	false	DILUPBiCGStab	5.657360e-03	2.373780e-06	3	true	DILUPBiCGStab	1.396290e-03	1.379860e-05	2	true	GAMGPCG	1.573370e-01	5.420550e-04	3	true
17            	DILUPBiCGStab	1.422380e-02	1.028960e-04	3	9.054980e-03	3.726280e-05	2	1.801020e-02	7.081370e-05	2	false	DILUPBiCGStab	5.672460e-03	4.754380e-05	2	true	DILUPBiCGStab	1.349480e-03	1.328570e-05	2	true	GAMGPCG	1.540650e-01	1.051000e-03	3	true
18            	DILUPBiCGStab	1.353220e-02	7.749420e-05	2	8.830660e-03	3.621230e-05	2	1.675070e-02	5.978120e-05	2	false	DILUPBiCGStab	5.662390e-03	2.304840e-06	3	true	DILUPBiCGStab	1.312730e-03	1.250330e-05	2	true	GAMGPCG	1.529400e-01	5.992440e-04	3	true
19            	DILUPBiCGStab	1.288550e-02	1.219470e-04	2	8.627400e-03	3.497630e-05	2	1.576360e-02	5.539280e-05	2	false	DILUPBiCGStab	5.646020e-03	2.292680e-06	3	true	DILUPBiCGStab	1.273570e-03	1.198240e-05	2	true	GAMGPCG	1.530010e-01	1.156450e-03	3	true
20            	DILUPBiCGStab	1.228970e-02	8.855460e-05	2	8.472100e-03	3.412480e-05	2	1.505040e-02	5.326850e-05	2	false	DILUPBiCGStab	5.607710e-03	2.292170e-06	3	true	DILUPBiCGStab	1.238350e-03	1.134080e-05	2	true	GAMGPCG	1.530050e-01	5.326990e-04	3	true
21            	DILUPBiCGStab	1.170340e-02	6.015840e-05	2	8.356850e-03	3.333790e-05	2	1.444950e-02	5.177080e-05	2	false	DILUPBiCGStab	5.552260e-03	2.271840e-06	3	true	DILUPBiCGStab	1.203510e-03	1.108660e-05	2	true	GAMGPCG	1.520630e-01	1.001220e-03	3	true
22            	DILUPBiCGStab	1.111960e-02	4.984200e-05	2	8.243430e-03	3.275340e-05	2	1.387940e-02	4.975470e-05	2	false	DILUPBiCGStab	5.514370e-03	5.491410e-05	2	true	DILUPBiCGStab	1.172140e-03	1.093610e-05	2	true	GAMGPCG	1.501390e-01	4.494980e-04	3	true
23            	DILUPBiCGStab	1.054910e-02	4.443080e-05	2	8.114550e-03	3.246770e-05	2	1.328500e-02	4.708570e-05	2	false	DILUPBiCGStab	5.481550e-03	5.081090e-05	2	true	DILUPBiCGStab	1.144380e-03	1.067380e-05	2	true	GAMGPCG	1.475480e-01	1.036740e-03	3	true
24            	DILUPBiCGStab	1.005020e-02	4.263300e-05	2	7.996670e-03	3.206220e-05	2	1.268520e-02	4.459100e-05	2	false	DILUPBiCGStab	5.459930e-03	2.245180e-06	3	true	DILUPBiCGStab	1.119970e-03	1.027190e-05	2	true	GAMGPCG	1.445070e-01	5.107440e-04	3	true
25            	DILUPBiCGStab	9.608560e-03	4.069990e-05	2	7.900690e-03	3.181700e-05	2	1.216040e-02	4.207040e-05	2	false	DILUPBiCGStab	5.454810e-03	2.239870e-06	3	true	DILUPBiCGStab	1.098070e-03	1.009490e-05	2	true	GAMGPCG	1.413350e-01	1.027110e-03	3	true
26            	DILUPBiCGStab	9.152170e-03	3.839690e-05	2	7.838460e-03	3.151200e-05	2	1.173530e-02	3.952650e-05	2	false	DILUPBiCGStab	5.439770e-03	2.276290e-06	3	true	DILUPBiCGStab	1.079480e-03	1.005490e-05	2	true	GAMGPCG	1.382650e-01	4.546660e-04	3	true
27            	DILUPBiCGStab	8.726530e-03	3.596500e-05	2	7.791860e-03	3.113840e-05	2	1.136810e-02	3.797370e-05	2	false	DILUPBiCGStab	5.428430e-03	2.210150e-06	3	true	DILUPBiCGStab	1.062500e-03	9.939600e-06	2	true	GAMGPCG	1.355270e-01	9.086450e-04	3	true
28            	DILUPBiCGStab	8.341060e-03	3.287000e-05	2	7.742130e-03	3.044940e-05	2	1.102980e-02	3.634400e-05	2	false	DILUPBiCGStab	5.423900e-03	2.240650e-06	3	true	DILUPBiCGStab	1.047690e-03	9.842430e-06	2	true	GAMGPCG	1.331500e-01	4.168370e-04	3	true
29            	DILUPBiCGStab	7.979190e-03	3.068890e-05	2	7.678200e-03	2.965620e-05	2	1.070150e-02	3.490490e-05	2	false	DILUPBiCGStab	5.436500e-03	3.598350e-05	2	true	DILUPBiCGStab	1.038700e-03	9.751000e-06	2	true	GAMGPCG	1.310350e-01	8.893360e-04	3	true
30            	DILUPBiCGStab	7.661230e-03	3.605620e-05	2	7.607610e-03	2.869630e-05	2	1.036490e-02	3.420290e-05	2	false	DILUPBiCGStab	5.434080e-03	2.224420e-05	2	true	DILUPBiCGStab	1.031700e-03	9.593480e-06	2	true	GAMGPCG	1.291460e-01	4.575430e-04	3	true
31            	DILUPBiCGStab	7.390750e-03	5.070350e-05	2	7.545880e-03	2.770990e-05	2	1.005140e-02	3.340920e-05	2	false	DILUPBiCGStab	5.445510e-03	1.694630e-05	2	true	DILUPBiCGStab	1.024960e-03	9.540670e-06	2	true	GAMGPCG	1.271610e-01	9.247330e-04	3	true
32            	DILUPBiCGStab	7.160350e-03	5.325280e-05	2	7.497980e-03	2.686080e-05	2	9.742040e-03	3.201810e-05	2	false	DILUPBiCGStab	5.456650e-03	1.245150e-05	2	true	DILUPBiCGStab	1.016660e-03	9.493820e-06	2	true	GAMGPCG	1.250190e-01	4.878380e-04	3	true
33            	DILUPBiCGStab	6.947040e-03	4.280200e-05	2	7.462480e-03	2.610640e-05	2	9.426750e-03	3.062450e-05	2	false	DILUPBiCGStab	5.483330e-03	1.208460e-05	2	true	DILUPBiCGStab	1.012770e-03	9.544330e-06	2	true	GAMGPCG	1.226170e-01	9.412750e-04	3	true
34            	DILUPBiCGStab	6.757210e-03	3.396570e-05	2	7.435110e-03	2.596420e-05	2	9.112410e-03	2.974580e-05	2	false	DILUPBiCGStab	5.506540e-03	4.978220e-05	2	true	DILUPBiCGStab	1.007500e-03	9.407420e-06	2	true	GAMGPCG	1.201890e-01	4.731520e-04	3	true
35            	DILUPBiCGStab	6.563910e-03	2.978190e-05	2	7.413210e-03	2.708140e-05	2	8.834200e-03	2.869400e-05	2	false	DILUPBiCGStab	5.530480e-03	4.881200e-05	2	true	DILUPBiCGStab	1.003040e-03	9.164070e-06	2	true	GAMGPCG	1.177260e-01	8.965020e-04	3	true
36            	DILUPBiCGStab	6.364200e-03	2.814620e-05	2	7.390250e-03	2.766100e-05	2	8.607280e-03	2.703950e-05	2	false	DILUPBiCGStab	5.552300e-03	4.660100e-05	2	true	DILUPBiCGStab	1.000970e-03	8.913550e-06	2	true	GAMGPCG	1.153310e-01	4.152200e-04	3	true
37            	DILUPBiCGStab	6.161970e-03	2.879220e-05	2	7.357150e-03	2.779550e-05	2	8.429680e-03	2.616690e-05	2	false	DILUPBiCGStab	5.564530e-03	4.431140e-05	2	true	DILUPBiCGStab	9.947670e-04	8.619800e-06	2	true	GAMGPCG	1.130700e-01	7.996800e-04	3	true
38            	DILUPBiCGStab	5.955670e-03	2.961060e-05	2	7.316820e-03	2.658310e-05	2	8.288250e-03	2.561030e-05	2	false	DILUPBiCGStab	5.562860e-03	4.278370e-05	2	true	DILUPBiCGStab	9.906300e-04	8.374850e-06	2	true	GAMGPCG	1.108830e-01	3.696380e-04	3	true
39            	DILUPBiCGStab	5.745190e-03	2.972140e-05	2	7.274260e-03	2.502060e-05	2	8.161890e-03	2.552530e-05	2	false	DILUPBiCGStab	5.553410e-03	4.198310e-05	2	true	DILUPBiCGStab	9.821250e-04	8.210100e-06	2	true	GAMGPCG	1.087150e-01	7.524930e-04	3	true
40            	DILUPBiCGStab	5.543070e-03	3.191490e-05	2	7.233700e-03	2.416710e-05	2	8.027390e-03	2.534040e-05	2	false	DILUPBiCGStab	5.547700e-03	4.081770e-05	2	true	DILUPBiCGStab	9.755560e-04	8.056110e-06	2	true	GAMGPCG	1.066420e-01	3.543980e-04	3	true
41            	DILUPBiCGStab	5.366050e-03	2.980310e-05	2	7.195870e-03	2.368950e-05	2	7.881690e-03	2.474400e-05	2	false	DILUPBiCGStab	5.529730e-03	4.007700e-05	2	true	DILUPBiCGStab	9.677520e-04	7.926360e-06	2	true	GAMGPCG	1.046840e-01	7.143460e-04	3	true
42            	DILUPBiCGStab	5.218790e-03	2.748230e-05	2	7.162740e-03	2.342110e-05	2	7.736790e-03	2.400100e-05	2	false	DILUPBiCGStab	5.508960e-03	3.960980e-05	2	true	DILUPBiCGStab	9.600290e-04	7.821180e-06	2	true	GAMGPCG	1.027520e-01	3.319740e-04	3	true
43            	DILUPBiCGStab	5.090140e-03	2.258490e-05	2	7.131540e-03	2.308800e-05	2	7.591310e-03	2.325060e-05	2	false	DILUPBiCGStab	5.474160e-03	3.874200e-05	2	true	DILUPBiCGStab	9.518900e-04	7.703450e-06	2	true	GAMGPCG	1.007130e-01	6.733730e-04	3	true
44            	DILUPBiCGStab	4.973620e-03	1.878080e-05	2	7.103870e-03	2.266740e-05	2	7.452120e-03	2.256370e-05	2	false	DILUPBiCGStab	5.453890e-03	3.791670e-05	2	true	DILUPBiCGStab	9.430420e-04	7.554540e-06	2	true	GAMGPCG	9.855520e-02	3.171790e-04	3	true
45            	DILUPBiCGStab	4.862090e-03	1.671770e-05	2	7.078300e-03	2.228480e-05	2	7.318880e-03	2.192060e-05	2	false	DILUPBiCGStab	5.413910e-03	3.780110e-05	2	true	DILUPBiCGStab	9.319220e-04	7.445660e-06	2	true	GAMGPCG	9.624570e-02	6.582600e-04	3	true
46            	DILUPBiCGStab	4.744000e-03	1.536580e-05	2	7.050870e-03	2.200960e-05	2	7.193010e-03	2.136490e-05	2	false	DILUPBiCGStab	5.371010e-03	3.736210e-05	2	true	DILUPBiCGStab	9.202470e-04	7.391040e-06	2	true	GAMGPCG	9.380410e-02	3.117530e-04	3	true
47            	DILUPBiCGStab	4.624550e-03	1.450810e-05	2	7.023310e-03	2.169360e-05	2	7.089560e-03	2.088570e-05	2	false	DILUPBiCGStab	5.320580e-03	3.666490e-05	2	true	DILUPBiCGStab	9.085640e-04	7.358390e-06	2	true	GAMGPCG	9.132730e-02	6.561400e-04	3	true
48            	DILUPBiCGStab	4.506350e-03	1.392550e-05	2	6.997730e-03	2.133490e-05	2	7.005520e-03	2.022670e-05	2	false	DILUPBiCGStab	5.267450e-03	3.627770e-05	2	true	DILUPBiCGStab	8.985920e-04	7.317490e-06	2	true	GAMGPCG	8.897260e-02	3.122470e-04	3	true
49            	DILUPBiCGStab	4.390680e-03	1.344030e-05	2	6.975290e-03	2.073840e-05	2	6.928480e-03	1.960330e-05	2	false	DILUPBiCGStab	5.205320e-03	3.722920e-05	2	true	DILUPBiCGStab	8.870500e-04	7.249860e-06	2	true	GAMGPCG	8.674700e-02	6.251290e-04	3	true
50            	DILUPBiCGStab	4.277600e-03	1.303550e-05	2	6.956410e-03	2.113070e-05	2	6.854400e-03	1.924390e-05	2	false	DILUPBiCGStab	5.143090e-03	4.112490e-05	2	true	DILUPBiCGStab	8.774700e-04	7.100590e-06	2	true	GAMGPCG	8.465510e-02	3.045880e-04	3	true
51            	DILUPBiCGStab	4.166910e-03	1.264230e-05	2	6.943670e-03	2.872150e-05	2	6.781700e-03	1.892100e-05	2	false	DILUPBiCGStab	5.080730e-03	8.559790e-06	2	true	DILUPBiCGStab	8.691830e-04	6.965890e-06	2	true	GAMGPCG	8.272630e-02	5.819220e-04	3	true
52            	DILUPBiCGStab	4.062380e-03	1.229270e-05	2	6.937980e-03	3.535720e-05	2	6.710130e-03	1.863180e-05	2	false	DILUPBiCGStab	5.014790e-03	1.001540e-05	2	true	DILUPBiCGStab	8.607480e-04	6.914520e-06	2	true	GAMGPCG	8.089320e-02	2.894970e-04	3	true
53            	DILUPBiCGStab	3.968660e-03	1.197330e-05	2	6.940610e-03	5.371310e-05	2	6.644000e-03	1.853860e-05	2	false	DILUPBiCGStab	4.954450e-03	9.197120e-06	2	true	DILUPBiCGStab	8.540050e-04	6.858550e-06	2	true	GAMGPCG	7.910490e-02	5.712930e-04	3	true
54            	DILUPBiCGStab	3.884070e-03	1.162610e-05	2	6.952050e-03	6.320800e-06	3	6.581900e-03	1.832120e-05	2	false	DILUPBiCGStab	4.890370e-03	1.162210e-05	2	true	DILUPBiCGStab	8.473720e-04	6.794640e-06	2	true	GAMGPCG	7.731660e-02	2.782720e-04	3	true
55            	DILUPBiCGStab	3.807020e-03	1.122340e-05	2	6.974670e-03	6.847160e-05	2	6.524680e-03	1.785160e-05	2	false	DILUPBiCGStab	4.830460e-03	1.184170e-05	2	true	DILUPBiCGStab	8.409740e-04	6.746700e-06	2	true	GAMGPCG	7.558450e-02	5.744070e-04	3	true
56            	DILUPBiCGStab	3.735320e-03	1.085410e-05	2	7.004420e-03	5.723270e-06	3	6.477920e-03	1.737140e-05	2	false	DILUPBiCGStab	4.776270e-03	8.274170e-06	2	true	DILUPBiCGStab	8.360010e-04	6.670090e-06	2	true	GAMGPCG	7.398000e-02	2.769820e-04	3	true
57            	DILUPBiCGStab	3.665860e-03	1.062380e-05	2	7.043990e-03	5.430660e-06	3	6.443890e-03	1.705170e-05	2	false	DILUPBiCGStab	4.721520e-03	8.285610e-06	2	true	DILUPBiCGStab	8.308220e-04	6.587790e-06	2	true	GAMGPCG	7.245930e-02	5.588440e-04	3	true
58            	DILUPBiCGStab	3.602230e-03	1.035000e-05	2	7.089690e-03	6.630870e-06	3	6.416280e-03	1.687490e-05	2	false	DILUPBiCGStab	4.667910e-03	4.504800e-05	2	true	DILUPBiCGStab	8.253750e-04	6.658590e-06	2	true	GAMGPCG	7.097240e-02	2.647960e-04	3	true
59            	DILUPBiCGStab	3.543110e-03	1.006690e-05	2	7.138570e-03	2.057730e-05	2	6.392670e-03	1.671540e-05	2	false	DILUPBiCGStab	4.617810e-03	8.882010e-06	2	true	DILUPBiCGStab	8.205690e-04	6.599790e-06	2	true	GAMGPCG	6.953090e-02	5.241360e-04	3	true
60            	DILUPBiCGStab	3.485820e-03	9.758380e-06	2	7.187420e-03	1.964060e-05	2	6.370450e-03	1.655760e-05	2	false	DILUPBiCGStab	4.572630e-03	3.717430e-05	2	true	DILUPBiCGStab	8.205280e-04	6.481480e-06	2	true	GAMGPCG	6.813280e-02	2.491220e-04	3	true
61            	DILUPBiCGStab	3.430740e-03	9.470370e-06	2	7.235330e-03	1.950800e-05	2	6.356500e-03	1.650060e-05	2	false	DILUPBiCGStab	4.521940e-03	3.512610e-05	2	true	DILUPBiCGStab	8.186960e-04	6.532810e-06	2	true	GAMGPCG	6.682600e-02	4.910510e-04	3	true
62            	DILUPBiCGStab	3.378720e-03	9.244830e-06	2	7.283260e-03	2.064040e-05	2	6.355080e-03	1.653910e-05	2	false	DILUPBiCGStab	4.474250e-03	3.362190e-05	2	true	DILUPBiCGStab	8.166010e-04	6.533440e-06	2	true	GAMGPCG	6.560600e-02	2.339010e-04	3	true
63            	DILUPBiCGStab	3.329610e-03	9.084850e-06	2	7.327400e-03	2.185080e-05	2	6.360810e-03	1.647580e-05	2	false	DILUPBiCGStab	4.427370e-03	3.153390e-05	2	true	DILUPBiCGStab	8.160910e-04	6.492890e-06	2	true	GAMGPCG	6.447290e-02	4.645490e-04	3	true
64            	DILUPBiCGStab	3.286070e-03	8.953530e-06	2	7.368740e-03	2.424280e-05	2	6.367900e-03	1.635160e-05	2	false	DILUPBiCGStab	4.388200e-03	3.005270e-05	2	true	DILUPBiCGStab	8.172680e-04	6.533770e-06	2	true	GAMGPCG	6.340540e-02	2.220770e-04	3	true
65            	DILUPBiCGStab	3.246860e-03	8.819850e-06	2	7.408680e-03	2.804310e-05	2	6.373970e-03	1.625010e-05	2	false	DILUPBiCGStab	4.347160e-03	3.005320e-05	2	true	DILUPBiCGStab	8.179100e-04	6.503440e-06	2	true	GAMGPCG	6.247810e-02	4.499830e-04	3	true
66            	DILUPBiCGStab	3.211160e-03	8.685420e-06	2	7.439520e-03	5.401550e-05	2	6.381720e-03	1.618550e-05	2	false	DILUPBiCGStab	4.306620e-03	3.071070e-05	2	true	DILUPBiCGStab	8.181130e-04	6.497540e-06	2	true	GAMGPCG	6.168300e-02	2.147770e-04	3	true
67            	DILUPBiCGStab	3.177480e-03	8.538020e-06	2	7.459440e-03	4.583290e-05	3	6.393620e-03	1.611170e-05	2	false	DILUPBiCGStab	4.266540e-03	3.011650e-05	2	true	DILUPBiCGStab	8.185600e-04	6.474490e-06	2	true	GAMGPCG	6.095750e-02	4.398350e-04	3	true
68            	DILUPBiCGStab	3.145050e-03	8.400130e-06	2	7.473690e-03	2.063090e-05	3	6.409700e-03	6.371130e-05	2	false	DILUPBiCGStab	4.227060e-03	3.009550e-05	2	true	DILUPBiCGStab	8.185890e-04	6.471430e-06	2	true	GAMGPCG	6.030460e-02	2.103580e-04	3	true
69            	DILUPBiCGStab	3.116650e-03	8.281380e-06	2	7.484080e-03	2.610700e-05	2	6.430290e-03	6.355150e-05	2	false	DILUPBiCGStab	4.181920e-03	3.175870e-05	2	true	DILUPBiCGStab	8.177400e-04	6.444760e-06	2	true	GAMGPCG	5.970730e-02	4.327450e-04	3	true
70            	DILUPBiCGStab	3.091410e-03	8.187260e-06	2	7.490230e-03	2.004610e-05	2	6.452280e-03	6.364420e-05	2	false	DILUPBiCGStab	4.137900e-03	3.069940e-05	2	true	DILUPBiCGStab	8.166080e-04	6.393520e-06	2	true	GAMGPCG	5.912870e-02	2.117470e-04	3	true
71            	DILUPBiCGStab	3.068030e-03	8.121590e-06	2	7.495760e-03	1.977240e-05	2	6.473650e-03	6.445470e-05	2	false	DILUPBiCGStab	4.094370e-03	3.132640e-05	2	true	DILUPBiCGStab	8.167170e-04	6.393900e-06	2	true	GAMGPCG	5.858140e-02	4.232740e-04	3	true
72            	DILUPBiCGStab	3.046250e-03	8.054900e-06	2	7.499810e-03	1.958610e-05	2	6.496190e-03	1.543880e-05	2	false	DILUPBiCGStab	4.051800e-03	3.442610e-05	2	true	DILUPBiCGStab	8.170870e-04	6.343550e-06	2	true	GAMGPCG	5.807980e-02	2.190670e-04	3	true
73            	DILUPBiCGStab	3.025130e-03	7.972980e-06	2	7.501860e-03	1.925220e-05	2	6.518080e-03	1.565610e-05	2	false	DILUPBiCGStab	4.012510e-03	3.525730e-05	2	true	DILUPBiCGStab	8.180380e-04	6.342950e-06	2	true	GAMGPCG	5.764340e-02	4.203720e-04	3	true
74            	DILUPBiCGStab	3.005430e-03	7.880800e-06	2	7.504760e-03	1.970250e-05	2	6.542420e-03	1.768980e-05	2	false	DILUPBiCGStab	3.976140e-03	3.370820e-05	2	true	DILUPBiCGStab	8.174620e-04	6.371370e-06	2	true	GAMGPCG	5.716890e-02	2.267020e-04	3	true
75            	DILUPBiCGStab	2.987640e-03	7.771850e-06	2	7.506650e-03	2.056600e-05	2	6.566620e-03	2.048440e-05	2	false	DILUPBiCGStab	3.938250e-03	3.271940e-05	2	true	DILUPBiCGStab	8.174500e-04	6.367060e-06	2	true	GAMGPCG	5.669160e-02	4.183040e-04	3	true
76            	DILUPBiCGStab	2.972060e-03	7.599890e-06	2	7.508120e-03	2.137050e-05	2	6.593950e-03	2.297300e-05	2	false	DILUPBiCGStab	3.902250e-03	3.054900e-05	2	true	DILUPBiCGStab	8.185050e-04	6.291580e-06	2	true	GAMGPCG	5.620060e-02	2.281630e-04	3	true
77            	DILUPBiCGStab	2.958360e-03	7.779680e-06	2	7.509850e-03	2.093870e-05	2	6.624250e-03	2.458850e-05	2	false	DILUPBiCGStab	3.871760e-03	2.827950e-05	2	true	DILUPBiCGStab	8.201190e-04	6.274350e-06	2	true	GAMGPCG	5.566430e-02	4.059000e-04	3	true
78            	DILUPBiCGStab	2.945250e-03	3.314680e-06	3	7.512920e-03	2.001360e-05	2	6.659220e-03	2.618880e-05	2	false	DILUPBiCGStab	3.844030e-03	2.984710e-05	2	true	DILUPBiCGStab	8.210550e-04	6.289850e-06	2	true	GAMGPCG	5.512580e-02	2.207960e-04	3	true
79            	DILUPBiCGStab	2.933970e-03	2.044810e-05	2	7.516210e-03	1.887450e-05	2	6.696830e-03	2.782610e-05	2	false	DILUPBiCGStab	3.820190e-03	2.823120e-05	2	true	DILUPBiCGStab	8.236390e-04	6.281020e-06	2	true	GAMGPCG	5.456930e-02	3.919870e-04	3	true
80            	DILUPBiCGStab	2.924810e-03	1.359700e-05	2	7.519720e-03	1.840190e-05	2	6.737680e-03	3.084450e-05	2	false	DILUPBiCGStab	3.799850e-03	2.667820e-05	2	true	DILUPBiCGStab	8.257400e-04	6.321750e-06	2	true	GAMGPCG	5.407330e-02	2.106000e-04	3	true
81            	DILUPBiCGStab	2.916440e-03	8.707770e-06	2	7.524210e-03	1.791080e-05	2	6.780060e-03	3.540810e-05	2	false	DILUPBiCGStab	3.780260e-03	2.791810e-05	2	true	DILUPBiCGStab	8.269080e-04	6.318860e-06	2	true	GAMGPCG	5.362460e-02	3.798150e-04	3	true
82            	DILUPBiCGStab	2.909180e-03	7.077880e-06	2	7.529880e-03	1.771790e-05	2	6.825480e-03	5.477760e-05	2	false	DILUPBiCGStab	3.763310e-03	2.892950e-05	2	true	DILUPBiCGStab	8.281880e-04	6.325540e-06	2	true	GAMGPCG	5.317660e-02	2.027960e-04	3	true
83            	DILUPBiCGStab	2.902710e-03	7.104850e-06	2	7.536370e-03	1.778370e-05	2	6.875920e-03	4.664180e-06	3	false	DILUPBiCGStab	3.749430e-03	2.871530e-05	2	true	DILUPBiCGStab	8.300640e-04	6.352350e-06	2	true	GAMGPCG	5.274740e-02	3.631290e-04	3	true
84            	DILUPBiCGStab	2.896880e-03	2.893060e-05	2	7.547180e-03	7.517640e-05	2	6.925540e-03	1.734030e-05	2	false	DILUPBiCGStab	3.740160e-03	2.912410e-05	2	true	DILUPBiCGStab	8.317920e-04	6.364660e-06	2	true	GAMGPCG	5.232960e-02	1.978490e-04	3	true
85            	DILUPBiCGStab	2.892360e-03	6.976530e-06	2	7.562580e-03	7.505780e-05	2	6.976040e-03	1.594800e-05	2	false	DILUPBiCGStab	3.732590e-03	2.776380e-05	2	true	DILUPBiCGStab	8.327110e-04	6.347130e-06	2	true	GAMGPCG	5.191980e-02	3.584300e-04	3	true
86            	DILUPBiCGStab	2.887190e-03	6.938250e-06	2	7.581210e-03	7.556340e-05	2	7.029620e-03	6.853880e-05	2	false	DILUPBiCGStab	3.728510e-03	2.663630e-05	2	true	DILUPBiCGStab	8.344290e-04	6.321360e-06	2	true	GAMGPCG	5.153780e-02	1.936800e-04	3	true
87            	DILUPBiCGStab	2.881870e-03	6.922200e-06	2	7.600600e-03	1.786460e-05	2	7.087950e-03	6.853070e-05	2	false	DILUPBiCGStab	3.728230e-03	2.701890e-05	2	true	DILUPBiCGStab	8.363450e-04	6.334780e-06	2	true	GAMGPCG	5.119110e-02	3.510170e-04	3	true
88            	DILUPBiCGStab	2.876510e-03	6.899410e-06	2	7.620120e-03	1.788190e-05	2	7.148890e-03	6.975930e-05	2	false	DILUPBiCGStab	3.729570e-03	2.717590e-05	2	true	DILUPBiCGStab	8.387080e-04	6.372910e-06	2	true	GAMGPCG	5.088150e-02	1.881450e-04	3	true
89            	DILUPBiCGStab	2.871850e-03	6.789820e-06	2	7.637710e-03	1.784030e-05	2	7.212240e-03	7.120540e-05	2	false	DILUPBiCGStab	3.732880e-03	2.708520e-05	2	true	DILUPBiCGStab	8.405930e-04	6.372460e-06	2	true	GAMGPCG	5.055000e-02	3.333450e-04	3	true
90            	DILUPBiCGStab	2.866160e-03	6.628600e-06	2	7.656290e-03	1.787800e-05	2	7.279390e-03	7.169740e-05	2	false	DILUPBiCGStab	3.734670e-03	2.910780e-05	2	true	DILUPBiCGStab	8.420970e-04	6.334570e-06	2	true	GAMGPCG	5.023580e-02	1.801370e-04	3	true
91            	DILUPBiCGStab	2.859830e-03	6.559340e-06	2	7.677030e-03	1.787240e-05	2	7.346130e-03	7.243260e-05	2	false	DILUPBiCGStab	3.737400e-03	3.068550e-05	2	true	DILUPBiCGStab	8.434560e-04	6.345040e-06	2	true	GAMGPCG	4.993760e-02	3.167680e-04	3	true
92            	DILUPBiCGStab	2.854080e-03	6.544950e-06	2	7.700140e-03	1.789890e-05	2	7.411780e-03	7.280510e-05	2	false	DILUPBiCGStab	3.740440e-03	3.354400e-05	2	true	DILUPBiCGStab	8.454910e-04	6.355370e-06	2	true	GAMGPCG	4.965210e-02	1.687560e-04	3	true
93            	DILUPBiCGStab	2.847710e-03	2.821120e-05	2	7.723090e-03	7.675710e-05	2	7.477440e-03	7.189940e-05	2	false	DILUPBiCGStab	3.742000e-03	7.206830e-06	2	true	DILUPBiCGStab	8.468660e-04	6.472320e-06	2	true	GAMGPCG	4.941010e-02	3.028340e-04	3	true
94            	DILUPBiCGStab	2.841310e-03	2.754720e-05	2	7.750510e-03	7.634810e-05	2	7.540620e-03	7.147520e-05	2	false	DILUPBiCGStab	3.743080e-03	7.276380e-06	2	true	DILUPBiCGStab	8.480040e-04	6.538770e-06	2	true	GAMGPCG	4.918490e-02	1.544110e-04	3	true
95            	DILUPBiCGStab	2.834400e-03	2.743340e-05	2	7.778880e-03	7.559810e-05	2	7.598270e-03	7.148480e-05	2	false	DILUPBiCGStab	3.740720e-03	9.134110e-06	2	true	DILUPBiCGStab	8.489240e-04	6.557640e-06	2	true	GAMGPCG	4.899280e-02	2.911890e-04	3	true
96            	DILUPBiCGStab	2.827430e-03	2.733350e-05	2	7.804710e-03	7.563480e-05	2	7.652910e-03	7.172850e-05	2	false	DILUPBiCGStab	3.735800e-03	1.122270e-05	2	true	DILUPBiCGStab	8.493310e-04	6.767960e-06	2	true	GAMGPCG	4.884970e-02	1.404610e-04	3	true
97            	DILUPBiCGStab	2.820050e-03	2.721250e-05	2	7.830290e-03	7.592260e-05	2	7.711690e-03	7.196400e-05	2	false	DILUPBiCGStab	3.728390e-03	9.956670e-07	3	true	DILUPBiCGStab	8.488300e-04	7.053880e-06	2	true	GAMGPCG	4.869880e-02	2.790660e-04	3	true
98            	DILUPBiCGStab	2.812850e-03	2.715220e-05	2	7.855750e-03	7.622720e-05	2	7.770720e-03	7.234050e-05	2	false	DILUPBiCGStab	3.718430e-03	3.403750e-05	2	true	DILUPBiCGStab	8.482320e-04	7.166590e-06	2	true	GAMGPCG	4.848850e-02	1.319230e-04	3	true
99            	DILUPBiCGStab	2.806300e-03	2.717600e-05	2	7.883810e-03	7.633350e-05	2	7.823760e-03	7.276110e-05	2	false	DILUPBiCGStab	3.707240e-03	1.808010e-05	2	true	DILUPBiCGStab	8.479660e-04	8.312970e-06	2	true	GAMGPCG	4.823230e-02	2.659730e-04	3	true
100           	DILUPBiCGStab	2.799550e-03	2.726030e-05	2	7.910210e-03	7.696770e-05	2	7.875760e-03	7.317160e-05	2	false	DILUPBiCGStab	3.694630e-03	1.499140e-05	2	true	DILUPBiCGStab	8.487780e-04	1.493390e-06	2	true	GAMGPCG	4.793690e-02	1.310150e-04	3	true
101           	DILUPBiCGStab	2.792450e-03	2.728380e-05	2	7.937610e-03	7.712430e-05	2	7.931790e-03	7.357280e-05	2	false	DILUPBiCGStab	3.681480e-03	1.227670e-05	2	true	DILUPBiCGStab	8.494990e-04	7.506520e-06	2	true	GAMGPCG	4.768490e-02	2.567840e-04	3	true
102           	DILUPBiCGStab	2.786080e-03	2.756490e-05	2	7.963880e-03	7.736100e-05	2	7.984660e-03	7.418780e-05	2	false	DILUPBiCGStab	3.667950e-03	1.009080e-05	2	true	DILUPBiCGStab	8.502440e-04	7.842050e-06	2	true	GAMGPCG	4.746290e-02	1.327920e-04	3	true
103           	DILUPBiCGStab	2.780400e-03	6.231520e-06	2	7.984580e-03	7.770270e-05	2	8.028880e-03	7.473800e-05	2	false	DILUPBiCGStab	3.651190e-03	8.971000e-06	2	true	DILUPBiCGStab	8.511450e-04	7.819740e-06	2	true	GAMGPCG	4.730100e-02	2.513320e-04	3	true
104           	DILUPBiCGStab	2.773490e-03	6.167470e-06	2	8.001230e-03	7.787190e-05	2	8.072190e-03	7.515100e-05	2	false	DILUPBiCGStab	3.637140e-03	8.558930e-06	2	true	DILUPBiCGStab	8.518630e-04	7.805730e-06	2	true	GAMGPCG	4.713630e-02	1.309670e-04	3	true
105           	DILUPBiCGStab	2.766760e-03	6.104900e-06	2	8.011610e-03	7.818360e-05	2	8.118320e-03	7.555250e-05	2	false	DILUPBiCGStab	3.621300e-03	8.211860e-06	2	true	DILUPBiCGStab	8.516470e-04	7.478430e-06	2	true	GAMGPCG	4.694770e-02	2.476180e-04	3	true
106           	DILUPBiCGStab	2.760330e-03	6.059360e-06	2	8.019290e-03	7.880490e-05	2	8.158240e-03	7.623880e-05	2	false	DILUPBiCGStab	3.605620e-03	7.652630e-06	2	true	DILUPBiCGStab	8.510310e-04	7.545840e-06	2	true	GAMGPCG	4.683600e-02	1.275470e-04	3	true
107           	DILUPBiCGStab	2.754200e-03	6.042720e-06	2	8.020790e-03	7.948190e-05	2	8.191760e-03	7.685410e-05	2	false	DILUPBiCGStab	3.590030e-03	7.181230e-06	2	true	DILUPBiCGStab	8.508280e-04	7.364520e-06	2	true	GAMGPCG	4.668750e-02	2.491420e-04	3	true
108           	DILUPBiCGStab	2.748280e-03	6.037020e-06	2	8.018780e-03	7.952740e-05	2	8.222460e-03	7.725250e-05	2	false	DILUPBiCGStab	3.574560e-03	6.733040e-06	2	true	DILUPBiCGStab	8.506070e-04	7.105950e-06	2	true	GAMGPCG	4.650690e-02	4.631000e-04	2	true
109           	DILUPBiCGStab	2.742880e-03	6.021580e-06	2	8.013700e-03	7.940310e-05	2	8.253610e-03	7.754770e-05	2	false	DILUPBiCGStab	3.559140e-03	6.603810e-06	2	true	DILUPBiCGStab	8.496860e-04	6.885800e-06	2	true	GAMGPCG	4.633450e-02	2.561830e-04	3	true
110           	DILUPBiCGStab	2.738500e-03	6.007410e-06	2	8.008900e-03	7.970140e-05	2	8.279660e-03	7.760050e-05	2	false	DILUPBiCGStab	3.545290e-03	6.542010e-06	2	true	DILUPBiCGStab	8.476430e-04	6.922530e-06	2	true	GAMGPCG	4.625620e-02	1.344060e-04	3	true
111           	DILUPBiCGStab	2.734210e-03	5.999740e-06	2	8.005850e-03	7.991600e-05	2	8.300550e-03	7.733680e-05	2	false	DILUPBiCGStab	3.532840e-03	6.122110e-06	2	true	DILUPBiCGStab	8.453660e-04	6.916500e-06	2	true	GAMGPCG	4.623320e-02	2.607010e-04	3	true
112           	DILUPBiCGStab	2.729840e-03	6.001860e-06	2	8.006360e-03	7.995580e-05	2	8.318630e-03	7.724650e-05	2	false	DILUPBiCGStab	3.518620e-03	5.812940e-06	2	true	DILUPBiCGStab	8.427130e-04	6.809940e-06	2	true	GAMGPCG	4.616530e-02	1.402990e-04	3	true
113           	DILUPBiCGStab	2.726760e-03	5.971510e-06	2	8.007880e-03	1.784780e-05	2	8.336700e-03	7.712270e-05	2	false	DILUPBiCGStab	3.505600e-03	5.693600e-06	2	true	DILUPBiCGStab	8.402060e-04	6.800060e-06	2	true	GAMGPCG	4.610750e-02	2.609090e-04	3	true
114           	DILUPBiCGStab	2.724460e-03	5.957520e-06	2	8.008990e-03	1.774230e-05	2	8.355910e-03	7.694550e-05	2	false	DILUPBiCGStab	3.494710e-03	5.767520e-06	2	true	DILUPBiCGStab	8.379960e-04	6.729960e-06	2	true	GAMGPCG	4.602520e-02	1.428360e-04	3	true
115           	DILUPBiCGStab	2.721960e-03	6.007630e-06	2	8.011010e-03	1.763570e-05	2	8.375090e-03	7.699590e-05	2	false	DILUPBiCGStab	3.483780e-03	5.780500e-06	2	true	DILUPBiCGStab	8.361900e-04	6.683110e-06	2	true	GAMGPCG	4.591240e-02	2.500770e-04	3	true
116           	DILUPBiCGStab	2.719170e-03	6.077220e-06	2	8.015060e-03	1.750070e-05	2	8.393360e-03	7.718620e-05	2	false	DILUPBiCGStab	3.474790e-03	5.836780e-06	2	true	DILUPBiCGStab	8.352240e-04	6.779980e-06	2	true	GAMGPCG	4.585290e-02	1.379300e-04	3	true