# Force and moment coefficients
# dragDir     : (1.000000e+00 0.000000e+00 0.000000e+00)
# sideDir     : (0.000000e+00 1.000000e+00 0.000000e+00)
# liftDir     : (0.000000e+00 0.000000e+00 1.000000e+00)
# rollAxis    : (1.000000e+00 0.000000e+00 0.000000e+00)
# pitchAxis   : (0.000000e+00 1.000000e+00 0.000000e+00)
# yawAxis     : (0.000000e+00 0.000000e+00 1.000000e+00)
# magUInf     : 1.750000e+01
# lRef        : 1.854000e+00
# Aref        : 6.450000e-01
# CofR        : (0.000000e+00 0.000000e+00 0.000000e+00)
#
# Time        	Cd            	Cd(f)         	Cd(r)         	Cl            	Cl(f)         	Cl(r)         	CmPitch       	CmRoll        	CmYaw         	Cs            	Cs(f)         	Cs(r)         
1             	2.539690e-01	-1.035278e-01	3.574968e-01	-7.332528e-01	-5.262958e-01	-2.069570e-01	-1.596694e-01	-2.305123e-01	3.812051e-02	3.912983e-01	2.337697e-01	1.575286e-01
2             	4.665259e-01	-1.240126e-01	5.905385e-01	-4.333107e-01	-3.293367e-01	-1.039740e-01	-1.126814e-01	-3.572756e-01	3.975702e-02	1.036542e+00	5.580283e-01	4.785142e-01
3             	6.742261e-01	-1.360459e-01	8.102719e-01	-1.524763e-01	-1.575309e-01	5.054572e-03	-8.129274e-02	-4.731589e-01	3.857423e-02	1.626470e+00	8.518094e-01	7.746610e-01
4             	7.808072e-01	-1.548947e-01	9.357020e-01	5.156774e-02	-5.835083e-02	1.099186e-01	-8.413470e-02	-5.452983e-01	4.569888e-02	2.006219e+00	1.048808e+00	9.574105e-01
5             	7.518452e-01	-1.875503e-01	9.393955e-01	1.645806e-01	-3.756761e-02	2.021482e-01	-1.198579e-01	-5.634729e-01	6.401731e-02	2.130213e+00	1.129124e+00	1.001089e+00
6             	6.122976e-01	-2.296129e-01	8.419104e-01	2.023773e-01	-7.368455e-02	2.760619e-01	-1.748732e-01	-5.357617e-01	8.966242e-02	2.040948e+00	1.110136e+00	9.308113e-01
7             	4.224322e-01	-2.702051e-01	6.926373e-01	1.962985e-01	-1.345862e-01	3.308848e-01	-2.327355e-01	-4.814212e-01	1.149340e-01	1.829463e+00	1.029666e+00	7.997977e-01
8             	2.492935e-01	-2.970361e-01	5.463296e-01	1.791208e-01	-1.884347e-01	3.675555e-01	-2.779951e-01	-4.216829e-01	1.325031e-01	1.594774e+00	9.298903e-01	6.648841e-01
9             	1.425574e-01	-3.023937e-01	4.449511e-01	1.685804e-01	-2.153623e-01	3.839427e-01	-2.996525e-01	-3.736724e-01	1.381994e-01	1.411606e+00	8.440026e-01	5.676038e-01
10            	1.196944e-01	-2.857768e-01	4.054712e-01	1.747383e-01	-2.080705e-01	3.828088e-01	-2.954396e-01	-3.456240e-01	1.319112e-01	1.316153e+00	7.899877e-01	5.261653e-01
11            	1.693823e-01	-2.528193e-01	4.222017e-01	1.983186e-01	-1.727325e-01	3.710511e-01	-2.718918e-01	-3.375105e-01	1.167070e-01	1.307408e+00	7.704110e-01	5.369969e-01
12            	2.609461e-01	-2.132638e-01	4.742098e-01	2.343908e-01	-1.217584e-01	3.561491e-01	-2.389538e-01	-3.437368e-01	9.756186e-02	1.360045e+00	7.775842e-01	5.824605e-01
13            	3.597275e-01	-1.765726e-01	5.363001e-01	2.748513e-01	-6.683224e-02	3.416836e-01	-2.042579e-01	-3.564363e-01	7.894541e-02	1.438877e+00	7.983839e-01	6.404931e-01
14            	4.383664e-01	-1.491617e-01	5.875281e-01	3.142501e-01	-1.542904e-02	3.296791e-01	-1.725541e-01	-3.683449e-01	6.375758e-02	1.513115e+00	8.203151e-01	6.927999e-01
15            	4.824603e-01	-1.340855e-01	6.165458e-01	3.462654e-01	2.720074e-02	3.190647e-01	-1.459320e-01	-3.753157e-01	5.320464e-02	1.562972e+00	8.346909e-01	7.282816e-01
16            	4.911455e-01	-1.302113e-01	6.213568e-01	3.696838e-01	6.067438e-02	3.090094e-01	-1.241675e-01	-3.757840e-01	4.686185e-02	1.581784e+00	8.377536e-01	7.440299e-01
17            	4.743249e-01	-1.338144e-01	6.081392e-01	3.841205e-01	8.626970e-02	2.978508e-01	-1.057905e-01	-3.709768e-01	4.334816e-02	1.573947e+00	8.303218e-01	7.436254e-01
18            	4.462878e-01	-1.400189e-01	5.863067e-01	3.921850e-01	1.064702e-01	2.857148e-01	-8.962228e-02	-3.631628e-01	4.099461e-02	1.549980e+00	8.159848e-01	7.339956e-01
19            	4.204098e-01	-1.446045e-01	5.650143e-01	3.971155e-01	1.241078e-01	2.730076e-01	-7.444990e-02	-3.548094e-01	3.847134e-02	1.521426e+00	7.991843e-01	7.222416e-01
20            	4.055460e-01	-1.448841e-01	5.504301e-01	4.022748e-01	1.414426e-01	2.608322e-01	-5.969479e-02	-3.476571e-01	3.507670e-02	1.497230e+00	7.836915e-01	7.135381e-01
21            	4.050031e-01	-1.403468e-01	5.453499e-01	4.081702e-01	1.586785e-01	2.494917e-01	-4.540657e-02	-3.428484e-01	3.059252e-02	1.481923e+00	7.715539e-01	7.103689e-01
22            	4.166635e-01	-1.316932e-01	5.483567e-01	4.171507e-01	1.770652e-01	2.400855e-01	-3.151016e-02	-3.400250e-01	2.529162e-02	1.475860e+00	7.632215e-01	7.126383e-01
23            	4.355657e-01	-1.210871e-01	5.566529e-01	4.274982e-01	1.950423e-01	2.324558e-01	-1.870676e-02	-3.388700e-01	1.977890e-02	1.476811e+00	7.581847e-01	7.186268e-01
24            	4.562053e-01	-1.105806e-01	5.667859e-01	4.377006e-01	2.111700e-01	2.265306e-01	-7.680319e-03	-3.386832e-01	1.464340e-02	1.481158e+00	7.552225e-01	7.259357e-01
25            	4.738625e-01	-1.020041e-01	5.758666e-01	4.458454e-01	2.241651e-01	2.216803e-01	1.242401e-03	-3.389354e-01	1.036177e-02	1.485605e+00	7.531641e-01	7.324405e-01
26            	4.859922e-01	-9.621735e-02	5.822095e-01	4.509591e-01	2.336261e-01	2.173330e-01	8.146538e-03	-3.392134e-01	7.110401e-03	1.487957e+00	7.510887e-01	7.368679e-01
27            	4.921871e-01	-9.343945e-02	5.856265e-01	4.516520e-01	2.394194e-01	2.122325e-01	1.359344e-02	-3.395330e-01	4.902580e-03	1.487340e+00	7.485728e-01	7.387676e-01
28            	4.938238e-01	-9.308314e-02	5.869070e-01	4.473888e-01	2.414545e-01	2.059343e-01	1.776012e-02	-3.399951e-01	3.498133e-03	1.483890e+00	7.454429e-01	7.384467e-01
29            	4.932392e-01	-9.416115e-02	5.874003e-01	4.386538e-01	2.406819e-01	1.979718e-01	2.135504e-02	-3.407807e-01	2.580256e-03	1.478988e+00	7.420744e-01	7.369139e-01
30            	4.926899e-01	-9.561770e-02	5.883076e-01	4.268328e-01	2.381107e-01	1.887221e-01	2.469433e-02	-3.419627e-01	1.776172e-03	1.473843e+00	7.386975e-01	7.351451e-01
31            	4.938608e-01	-9.665340e-02	5.905142e-01	4.132096e-01	2.346803e-01	1.785292e-01	2.807554e-02	-3.435838e-01	8.168360e-04	1.469560e+00	7.355968e-01	7.339632e-01
32            	4.973244e-01	-9.659463e-02	5.939191e-01	4.009426e-01	2.319056e-01	1.690370e-01	3.143432e-02	-3.452569e-01	-4.704677e-04	1.466684e+00	7.328717e-01	7.338126e-01
33            	5.030412e-01	-9.551865e-02	5.985599e-01	3.899773e-01	2.296623e-01	1.603150e-01	3.467364e-02	-3.470393e-01	-2.161401e-03	1.465304e+00	7.304905e-01	7.348133e-01
34            	5.102544e-01	-9.365663e-02	6.039110e-01	3.807283e-01	2.276562e-01	1.530721e-01	3.729205e-02	-3.487838e-01	-4.220486e-03	1.464877e+00	7.282179e-01	7.366589e-01
35            	5.182295e-01	-9.125507e-02	6.094845e-01	3.732203e-01	2.257803e-01	1.474400e-01	3.917013e-02	-3.503698e-01	-6.541541e-03	1.465006e+00	7.259617e-01	7.390447e-01
36            	5.262026e-01	-8.820595e-02	6.144086e-01	3.694915e-01	2.251104e-01	1.443811e-01	4.036466e-02	-3.513073e-01	-9.086099e-03	1.465230e+00	7.235290e-01	7.417012e-01
37            	5.338545e-01	-8.457700e-02	6.184315e-01	3.697348e-01	2.256983e-01	1.440366e-01	4.083085e-02	-3.515042e-01	-1.184602e-02	1.465500e+00	7.209042e-01	7.445962e-01
38            	5.410197e-01	-8.053946e-02	6.215592e-01	3.730461e-01	2.267460e-01	1.463001e-01	4.022293e-02	-3.510493e-01	-1.477726e-02	1.465600e+00	7.180227e-01	7.475773e-01
39            	5.479613e-01	-7.621398e-02	6.241753e-01	3.782835e-01	2.278391e-01	1.504444e-01	3.869731e-02	-3.501946e-01	-1.782416e-02	1.465784e+00	7.150679e-01	7.507162e-01
40            	5.550443e-01	-7.148180e-02	6.265261e-01	3.847285e-01	2.289577e-01	1.557707e-01	3.659350e-02	-3.490040e-01	-2.098436e-02	1.465778e+00	7.119047e-01	7.538734e-01
41            	5.624958e-01	-6.653968e-02	6.290354e-01	3.912535e-01	2.299807e-01	1.612728e-01	3.435395e-02	-3.477876e-01	-2.423828e-02	1.465857e+00	7.086900e-01	7.571666e-01
42            	5.704419e-01	-6.149016e-02	6.319320e-01	3.965518e-01	2.305763e-01	1.659755e-01	3.230036e-02	-3.467111e-01	-2.761554e-02	1.465779e+00	7.052739e-01	7.605050e-01
43            	5.788364e-01	-5.653557e-02	6.353720e-01	3.995339e-01	2.304504e-01	1.690835e-01	3.068346e-02	-3.459538e-01	-3.112122e-02	1.465369e+00	7.015634e-01	7.638058e-01
44            	5.876505e-01	-5.158824e-02	6.392387e-01	4.003016e-01	2.297057e-01	1.705960e-01	2.955485e-02	-3.454135e-01	-3.482387e-02	1.464294e+00	6.973229e-01	7.669707e-01
45            	5.967748e-01	-4.690237e-02	6.436772e-01	3.978018e-01	2.277137e-01	1.700881e-01	2.881283e-02	-3.452898e-01	-3.876487e-02	1.462477e+00	6.924738e-01	7.700035e-01
46            	6.060496e-01	-4.256474e-02	6.486143e-01	3.916667e-01	2.243000e-01	1.673667e-01	2.846660e-02	-3.455895e-01	-4.299775e-02	1.459534e+00	6.867692e-01	7.727647e-01
47            	6.154089e-01	-3.876439e-02	6.541733e-01	3.811787e-01	2.189250e-01	1.622537e-01	2.833562e-02	-3.464688e-01	-4.748389e-02	1.455462e+00	6.802472e-01	7.752149e-01
48            	6.248198e-01	-3.540240e-02	6.602222e-01	3.668814e-01	2.118466e-01	1.550347e-01	2.840594e-02	-3.478123e-01	-5.222493e-02	1.450079e+00	6.728144e-01	7.772643e-01
49            	6.342755e-01	-3.264386e-02	6.669193e-01	3.482424e-01	2.026713e-01	1.455711e-01	2.855008e-02	-3.497816e-01	-5.715533e-02	1.443631e+00	6.646600e-01	7.789707e-01
50            	6.436511e-01	-3.027730e-02	6.739284e-01	3.267732e-01	1.920801e-01	1.346931e-01	2.869350e-02	-3.521029e-01	-6.219043e-02	1.436254e+00	6.559367e-01	7.803175e-01
51            	6.529370e-01	-2.824318e-02	6.811801e-01	3.033309e-01	1.805779e-01	1.227529e-01	2.891250e-02	-3.547117e-01	-6.724186e-02	1.428475e+00	6.469956e-01	7.814793e-01
52            	6.619718e-01	-2.642683e-02	6.883986e-01	2.793545e-01	1.688550e-01	1.104994e-01	2.917780e-02	-3.574127e-01	-7.221416e-02	1.420579e+00	6.380754e-01	7.825037e-01
53            	6.706572e-01	-2.482625e-02	6.954834e-01	2.557155e-01	1.573711e-01	9.834438e-02	2.951338e-02	-3.601548e-01	-7.708714e-02	1.413053e+00	6.294392e-01	7.836135e-01
54            	6.788915e-01	-2.332057e-02	7.022121e-01	2.336159e-01	1.467498e-01	8.686610e-02	2.994185e-02	-3.627663e-01	-8.180840e-02	1.405992e+00	6.211874e-01	7.848042e-01
55            	6.865032e-01	-2.209651e-02	7.085997e-01	2.128517e-01	1.370238e-01	7.582792e-02	3.059793e-02	-3.653481e-01	-8.627389e-02	1.399795e+00	6.136236e-01	7.861713e-01
56            	6.933077e-01	-2.110561e-02	7.144133e-01	1.940704e-01	1.285781e-01	6.549226e-02	3.154292e-02	-3.677595e-01	-9.049438e-02	1.394222e+00	6.066166e-01	7.876054e-01
57            	6.991702e-01	-2.056185e-02	7.197321e-01	1.765675e-01	1.210444e-01	5.552308e-02	3.276065e-02	-3.701470e-01	-9.437580e-02	1.389408e+00	6.003281e-01	7.890797e-01
58            	7.040493e-01	-2.040009e-02	7.244494e-01	1.606633e-01	1.144525e-01	4.621077e-02	3.412086e-02	-3.724247e-01	-9.796897e-02	1.385118e+00	5.945900e-01	7.905279e-01
59            	7.078629e-01	-2.073317e-02	7.285961e-01	1.460946e-01	1.086116e-01	3.748307e-02	3.556425e-02	-3.746646e-01	-1.011418e-01	1.381479e+00	5.895978e-01	7.918814e-01
60            	7.104742e-01	-2.137405e-02	7.318483e-01	1.339233e-01	1.039070e-01	3.001633e-02	3.694533e-02	-3.766112e-01	-1.038835e-01	1.378204e+00	5.852185e-01	7.929855e-01
61            	7.120671e-01	-2.227474e-02	7.343419e-01	1.241591e-01	1.002064e-01	2.395269e-02	3.812685e-02	-3.783083e-01	-1.061434e-01	1.375567e+00	5.816401e-01	7.939269e-01
62            	7.125109e-01	-2.334929e-02	7.358602e-01	1.171856e-01	9.745707e-02	1.972857e-02	3.886425e-02	-3.796047e-01	-1.079273e-01	1.373516e+00	5.788308e-01	7.946854e-01
63            	7.118503e-01	-2.446030e-02	7.363106e-01	1.139027e-01	9.597857e-02	1.792417e-02	3.902720e-02	-3.803855e-01	-1.091962e-01	1.372361e+00	5.769845e-01	7.953770e-01
64            	7.101169e-01	-2.558736e-02	7.357043e-01	1.139102e-01	9.562089e-02	1.828927e-02	3.866581e-02	-3.806458e-01	-1.100157e-01	1.372044e+00	5.760065e-01	7.960379e-01
65            	7.075881e-01	-2.642586e-02	7.340140e-01	1.182691e-01	9.684870e-02	2.142040e-02	3.771415e-02	-3.802199e-01	-1.104438e-01	1.372664e+00	5.758880e-01	7.967756e-01
66            	7.044573e-01	-2.698014e-02	7.314375e-01	1.259765e-01	9.938191e-02	2.659461e-02	3.639365e-02	-3.792088e-01	-1.105715e-01	1.374003e+00	5.764299e-01	7.975728e-01
67            	7.010256e-01	-2.704528e-02	7.280709e-01	1.371096e-01	1.034033e-01	3.370636e-02	3.484845e-02	-3.775581e-01	-1.105059e-01	1.375826e+00	5.774071e-01	7.984189e-01
68            	6.975885e-01	-2.672768e-02	7.243162e-01	1.501588e-01	1.085954e-01	4.156343e-02	3.351598e-02	-3.755219e-01	-1.103079e-01	1.377927e+00	5.786553e-01	7.992712e-01
69            	6.944371e-01	-2.580169e-02	7.202388e-01	1.652675e-01	1.153532e-01	4.991431e-02	3.271945e-02	-3.730203e-01	-1.099910e-01	1.379954e+00	5.799861e-01	7.999681e-01
70            	6.919146e-01	-2.423822e-02	7.161528e-01	1.814334e-01	1.233038e-01	5.812963e-02	3.258706e-02	-3.701955e-01	-1.095700e-01	1.381692e+00	5.812762e-01	8.004161e-01
71            	6.904422e-01	-2.181278e-02	7.122549e-01	1.986721e-01	1.324019e-01	6.627012e-02	3.306591e-02	-3.670339e-01	-1.091202e-01	1.383059e+00	5.824091e-01	8.006495e-01
72            	6.902146e-01	-1.863290e-02	7.088475e-01	2.158328e-01	1.418665e-01	7.396627e-02	3.395013e-02	-3.637402e-01	-1.086845e-01	1.383951e+00	5.832910e-01	8.006601e-01
73            	6.912395e-01	-1.476696e-02	7.060064e-01	2.325139e-01	1.511597e-01	8.135421e-02	3.490274e-02	-3.603867e-01	-1.082403e-01	1.384214e+00	5.838667e-01	8.003473e-01
74            	6.933769e-01	-1.049497e-02	7.038719e-01	2.477708e-01	1.592642e-01	8.850662e-02	3.537880e-02	-3.571834e-01	-1.077106e-01	1.383814e+00	5.841966e-01	7.996177e-01
75            	6.964420e-01	-6.060823e-03	7.025029e-01	2.612123e-01	1.654492e-01	9.576315e-02	3.484301e-02	-3.542818e-01	-1.070495e-01	1.382840e+00	5.843707e-01	7.984696e-01
76            	7.002665e-01	-1.838857e-03	7.021054e-01	2.715635e-01	1.688422e-01	1.027213e-01	3.306047e-02	-3.519721e-01	-1.063430e-01	1.381313e+00	5.843136e-01	7.969997e-01
77            	7.048026e-01	2.139684e-03	7.026629e-01	2.795934e-01	1.695562e-01	1.100371e-01	2.975956e-02	-3.502616e-01	-1.056477e-01	1.379533e+00	5.841189e-01	7.954142e-01
78            	7.098708e-01	5.686200e-03	7.041846e-01	2.845837e-01	1.675995e-01	1.169841e-01	2.530770e-02	-3.492492e-01	-1.050776e-01	1.377459e+00	5.836519e-01	7.938071e-01
79            	7.152931e-01	8.919499e-03	7.063736e-01	2.880485e-01	1.637046e-01	1.243439e-01	1.968036e-02	-3.487270e-01	-1.046371e-01	1.375516e+00	5.831210e-01	7.923953e-01
80            	7.210073e-01	1.199352e-02	7.090138e-01	2.907351e-01	1.586783e-01	1.320568e-01	1.331074e-02	-3.485101e-01	-1.043389e-01	1.373768e+00	5.825453e-01	7.912232e-01
81            	7.269175e-01	1.503759e-02	7.118799e-01	2.936960e-01	1.532495e-01	1.404464e-01	6.401532e-03	-3.484211e-01	-1.041690e-01	1.372506e+00	5.820839e-01	7.904219e-01
82            	7.330203e-01	1.820457e-02	7.148157e-01	2.974064e-01	1.481791e-01	1.492273e-01	-5.240825e-04	-3.483056e-01	-1.041229e-01	1.371702e+00	5.817282e-01	7.899739e-01
83            	7.391201e-01	2.154380e-02	7.175763e-01	3.027309e-01	1.441417e-01	1.585892e-01	-7.223765e-03	-3.480162e-01	-1.041216e-01	1.371570e+00	5.816635e-01	7.899067e-01
84            	7.450435e-01	2.502425e-02	7.200193e-01	3.095800e-01	1.413872e-01	1.681928e-01	-1.340282e-02	-3.474975e-01	-1.041752e-01	1.371986e+00	5.818179e-01	7.901683e-01
85            	7.507341e-01	2.860730e-02	7.221268e-01	3.180625e-01	1.400503e-01	1.780122e-01	-1.898093e-02	-3.467597e-01	-1.042755e-01	1.373006e+00	5.822273e-01	7.907784e-01
86            	7.560534e-01	3.214909e-02	7.239043e-01	3.272295e-01	1.398000e-01	1.874295e-01	-2.381476e-02	-3.458776e-01	-1.045003e-01	1.374372e+00	5.826859e-01	7.916866e-01
87            	7.609309e-01	3.560877e-02	7.253222e-01	3.372148e-01	1.407252e-01	1.964896e-01	-2.788218e-02	-3.448567e-01	-1.049212e-01	1.376176e+00	5.831668e-01	7.930091e-01
88            	7.652525e-01	3.887647e-02	7.263761e-01	3.471678e-01	1.424676e-01	2.047002e-01	-3.111631e-02	-3.437498e-01	-1.056501e-01	1.378136e+00	5.834180e-01	7.947182e-01
89            	7.689591e-01	4.194231e-02	7.270168e-01	3.574496e-01	1.450710e-01	2.123786e-01	-3.365384e-02	-3.425373e-01	-1.067955e-01	1.380278e+00	5.833436e-01	7.969347e-01
90            	7.720846e-01	4.467115e-02	7.274135e-01	3.670170e-01	1.480424e-01	2.189745e-01	-3.546606e-02	-3.413712e-01	-1.084132e-01	1.382497e+00	5.828352e-01	7.996616e-01
91            	7.747960e-01	4.713374e-02	7.276623e-01	3.758864e-01	1.512354e-01	2.246510e-01	-3.670777e-02	-3.402643e-01	-1.105418e-01	1.384819e+00	5.818674e-01	8.029511e-01
92            	7.772006e-01	4.928240e-02	7.279182e-01	3.835396e-01	1.542481e-01	2.292915e-01	-3.752169e-02	-3.393179e-01	-1.131529e-01	1.387226e+00	5.804602e-01	8.067661e-01
93            	7.794643e-01	5.117169e-02	7.282926e-01	3.901358e-01	1.570056e-01	2.331302e-01	-3.806232e-02	-3.385605e-01	-1.161864e-01	1.389799e+00	5.787131e-01	8.110859e-01
94            	7.815535e-01	5.270476e-02	7.288488e-01	3.950259e-01	1.591847e-01	2.358412e-01	-3.832820e-02	-3.380720e-01	-1.195137e-01	1.392341e+00	5.766567e-01	8.156841e-01
95            	7.834815e-01	5.397686e-02	7.295047e-01	3.987786e-01	1.608934e-01	2.378853e-01	-3.849595e-02	-3.377639e-01	-1.230177e-01	1.394718e+00	5.743413e-01	8.203768e-01
96            	7.851951e-01	5.485644e-02	7.303387e-01	4.005111e-01	1.616870e-01	2.388242e-01	-3.856860e-02	-3.377411e-01	-1.266166e-01	1.396725e+00	5.717461e-01	8.249793e-01
97            	7.866610e-01	5.534323e-02	7.313178e-01	4.006076e-01	1.616527e-01	2.389549e-01	-3.865108e-02	-3.379873e-01	-1.302162e-01	1.398385e+00	5.689761e-01	8.294086e-01
98            	7.878538e-01	5.548833e-02	7.323655e-01	3.992187e-01	1.609248e-01	2.382939e-01	-3.868458e-02	-3.384386e-01	-1.337520e-01	1.399562e+00	5.660292e-01	8.335332e-01
99            	7.888121e-01	5.543846e-02	7.333736e-01	3.972495e-01	1.599063e-01	2.373432e-01	-3.871848e-02	-3.389676e-01	-1.371349e-01	1.400421e+00	5.630757e-01	8.373454e-01
100           	7.895543e-01	5.521041e-02	7.343439e-01	3.945227e-01	1.586184e-01	2.359043e-01	-3.864298e-02	-3.395667e-01	-1.403462e-01	1.400918e+00	5.601130e-01	8.408054e-01
101           	7.901480e-01	5.478056e-02	7.353674e-01	3.910615e-01	1.571872e-01	2.338743e-01	-3.834351e-02	-3.402934e-01	-1.433579e-01	1.401347e+00	5.573157e-01	8.440316e-01
102           	7.905859e-01	5.419881e-02	7.363871e-01	3.870340e-01	1.557922e-01	2.312418e-01	-3.772481e-02	-3.410941e-01	-1.461326e-01	1.401663e+00	5.546988e-01	8.469640e-01
103           	7.908964e-01	5.344986e-02	7.374466e-01	3.826161e-01	1.544984e-01	2.281177e-01	-3.680966e-02	-3.419983e-01	-1.486346e-01	1.402102e+00	5.524163e-01	8.496856e-01
104           	7.910865e-01	5.254728e-02	7.385392e-01	3.777917e-01	1.532385e-01	2.245532e-01	-3.565736e-02	-3.429960e-01	-1.508329e-01	1.402608e+00	5.504712e-01	8.521371e-01
105           	7.912372e-01	5.146646e-02	7.397707e-01	3.725894e-01	1.518788e-01	2.207106e-01	-3.441586e-02	-3.441521e-01	-1.527863e-01	1.403510e+00	5.489686e-01	8.545412e-01
106           	7.913649e-01	5.027525e-02	7.410897e-01	3.670491e-01	1.502861e-01	2.167630e-01	-3.323841e-02	-3.454072e-01	-1.545495e-01	1.404652e+00	5.477762e-01	8.568753e-01
107           	7.915685e-01	4.902263e-02	7.425459e-01	3.613279e-01	1.483464e-01	2.129815e-01	-3.231754e-02	-3.467616e-01	-1.561991e-01	1.406207e+00	5.469043e-01	8.593026e-01
108           	7.918248e-01	4.780769e-02	7.440171e-01	3.555759e-01	1.460024e-01	2.095735e-01	-3.178558e-02	-3.481047e-01	-1.577219e-01	1.407846e+00	5.462012e-01	8.616450e-01
109           	7.921553e-01	4.663930e-02	7.455160e-01	3.497549e-01	1.430375e-01	2.067174e-01	-3.183993e-02	-3.494383e-01	-1.590954e-01	1.409522e+00	5.456655e-01	8.638563e-01
110           	7.924715e-01	4.554922e-02	7.469223e-01	3.437556e-01	1.393384e-01	2.044171e-01	-3.253935e-02	-3.506865e-01	-1.602880e-01	1.410870e+00	5.451473e-01	8.657232e-01
111           	7.927575e-01	4.451180e-02	7.482457e-01	3.376309e-01	1.348924e-01	2.027384e-01	-3.392300e-02	-3.518669e-01	-1.612940e-01	1.412045e+00	5.447287e-01	8.673167e-01
112           	7.929235e-01	4.348891e-02	7.494346e-01	3.312543e-01	1.296582e-01	2.015961e-01	-3.596896e-02	-3.529729e-01	-1.621057e-01	1.412952e+00	5.443705e-01	8.685819e-01
113           	7.928798e-01	4.239602e-02	7.504837e-01	3.247625e-01	1.237518e-01	2.010107e-01	-3.862943e-02	-3.540439e-01	-1.627760e-01	1.413917e+00	5.441827e-01	8.697346e-01
114           	7.924919e-01	4.126326e-02	7.512286e-01	3.184483e-01	1.175016e-01	2.009468e-01	-4.172260e-02	-3.549827e-01	-1.633393e-01	1.414809e+00	5.440653e-01	8.707440e-01
115           	7.916977e-01	4.008260e-02	7.516151e-01	3.126642e-01	1.112317e-01	2.014325e-01	-4.510043e-02	-3.557662e-01	-1.638601e-01	1.415783e+00	5.440314e-01	8.717516e-01
116           	7.904678e-01	3.889285e-02	7.515750e-01	3.074606e-01	1.051393e-01	2.023213e-01	-4.859101e-02	-3.563411e-01	-1.643815e-01	1.416649e+00	5.439431e-01	8.727061e-01
117           	7.888365e-01	3.765627e-02	7.511803e-01	3.027710e-01	9.937685e-02	2.033941e-01	-5.200862e-02	-3.567620e-01	-1.649093e-01	1.417548e+00	5.438649e-01	8.736835e-01
118           	7.868280e-01	3.643895e-02	7.503891e-01	2.986535e-01	9.420447e-02	2.044490e-01	-5.512227e-02	-3.569751e-01	-1.653884e-01	1.418273e+00	5.437480e-01	8.745248e-01
119           	7.844982e-01	3.523247e-02	7.492657e-01	2.950970e-01	8.979009e-02	2.053069e-01	-5.775839e-02	-3.570166e-01	-1.657832e-01	1.418997e+00	5.437155e-01	8.752819e-01
120           	7.820086e-01	3.424172e-02	7.477669e-01	2.926685e-01	8.651608e-02	2.061524e-01	-5.981818e-02	-3.567626e-01	-1.661412e-01	1.419680e+00	5.436990e-01	8.759814e-01
121           	7.795112e-01	3.350532e-02	7.460058e-01	2.912503e-01	8.446542e-02	2.067849e-01	-6.115975e-02	-3.562503e-01	-1.664662e-01	1.420402e+00	5.437347e-01	8.766671e-01
122           	7.771430e-01	3.308214e-02	7.440609e-01	2.908950e-01	8.349931e-02	2.073957e-01	-6.194821e-02	-3.554894e-01	-1.668039e-01	1.421203e+00	5.437976e-01	8.774055e-01
123           	7.750489e-01	3.302197e-02	7.420269e-01	2.914565e-01	8.339838e-02	2.080581e-01	-6.232986e-02	-3.545025e-01	-1.671628e-01	1.422041e+00	5.438579e-01	8.781834e-01
124           	7.732378e-01	3.327620e-02	7.399616e-01	2.927163e-01	8.373066e-02	2.089856e-01	-6.262747e-02	-3.533427e-01	-1.675582e-01	1.422837e+00	5.438606e-01	8.789769e-01
125           	7.717596e-01	3.384732e-02	7.379123e-01	2.946010e-01	8.434503e-02	2.102560e-01	-6.295548e-02	-3.520325e-01	-1.679519e-01	1.423567e+00	5.438314e-01	8.797353e-01
126           	7.705905e-01	3.471997e-02	7.358705e-01	2.971858e-01	8.492157e-02	2.122642e-01	-6.367132e-02	-3.505753e-01	-1.683337e-01	1.424244e+00	5.437881e-01	8.804554e-01
127           	7.697146e-01	3.590491e-02	7.338097e-01	3.006418e-01	8.544999e-02	2.151918e-01	-6.487092e-02	-3.489524e-01	-1.686459e-01	1.424850e+00	5.437792e-01	8.810711e-01
128           	7.690325e-01	3.731326e-02	7.317193e-01	3.046327e-01	8.566746e-02	2.189652e-01	-6.664890e-02	-3.472030e-01	-1.689068e-01	1.425290e+00	5.437381e-01	8.815517e-01
129           	7.685161e-01	3.894154e-02	7.295745e-01	3.092597e-01	8.563686e-02	2.236229e-01	-6.899301e-02	-3.453165e-01	-1.691054e-01	1.425526e+00	5.436578e-01	8.818685e-01
130           	7.681028e-01	4.073111e-02	7.273717e-01	3.141837e-01	8.519421e-02	2.289895e-01	-7.189765e-02	-3.433203e-01	-1.692826e-01	1.425372e+00	5.434034e-01	8.819687e-01
131           	7.677350e-01	4.270328e-02	7.250317e-01	3.196719e-01	8.450225e-02	2.351696e-01	-7.533370e-02	-3.411642e-01	-1.694383e-01	1.424695e+00	5.429093e-01	8.817859e-01
132           	7.674574e-01	4.472806e-02	7.227293e-01	3.247379e-01	8.324058e-02	2.414973e-01	-7.912836e-02	-3.390006e-01	-1.696146e-01	1.423373e+00	5.420718e-01	8.813009e-01
133           	7.672419e-01	4.673281e-02	7.205091e-01	3.292440e-01	8.157419e-02	2.476698e-01	-8.304782e-02	-3.368881e-01	-1.698222e-01	1.421453e+00	5.409044e-01	8.805488e-01
134           	7.670621e-01	4.853154e-02	7.185306e-01	3.321004e-01	7.925879e-02	2.528416e-01	-8.679142e-02	-3.349995e-01	-1.700771e-01	1.418836e+00	5.393410e-01	8.794952e-01
135           	7.669042e-01	5.009536e-02	7.168089e-01	3.333808e-01	7.645847e-02	2.569223e-01	-9.023193e-02	-3.333568e-01	-1.703748e-01	1.415541e+00	5.373957e-01	8.781453e-01
136           	7.668011e-01	5.125679e-02	7.155443e-01	3.319908e-01	7.286872e-02	2.591221e-01	-9.312667e-02	-3.321438e-01	-1.706997e-01	1.411659e+00	5.351300e-01	8.765294e-01
137           	7.666942e-01	5.204016e-02	7.146540e-01	3.283819e-01	6.854883e-02	2.598331e-01	-9.564214e-02	-3.313069e-01	-1.709995e-01	1.407324e+00	5.326624e-01	8.746615e-01
138           	7.664826e-01	5.233263e-02	7.141500e-01	3.223349e-01	6.345389e-02	2.588810e-01	-9.771357e-02	-3.309087e-01	-1.711632e-01	1.402740e+00	5.302066e-01	8.725330e-01
139           	7.660989e-01	5.209477e-02	7.140042e-01	3.140906e-01	5.768220e-02	2.564084e-01	-9.936310e-02	-3.309547e-01	-1.710602e-01	1.398186e+00	5.280326e-01	8.701530e-01
140           	7.654955e-01	5.132828e-02	7.141672e-01	3.039398e-01	5.145324e-02	2.524865e-01	-1.005167e-01	-3.314195e-01	-1.705521e-01	1.393895e+00	5.263954e-01	8.674997e-01
141           	7.645981e-01	4.994455e-02	7.146536e-01	2.920308e-01	4.483284e-02	2.471980e-01	-1.011826e-01	-3.323545e-01	-1.695586e-01	1.390273e+00	5.255779e-01	8.646952e-01
142           	7.633658e-01	4.797840e-02	7.153874e-01	2.787549e-01	3.808070e-02	2.406742e-01	-1.012968e-01	-3.337045e-01	-1.680826e-01	1.387406e+00	5.256204e-01	8.617855e-01
143           	7.616916e-01	4.535614e-02	7.163355e-01	2.640729e-01	3.113042e-02	2.329425e-01	-1.009060e-01	-3.354897e-01	-1.661824e-01	1.385368e+00	5.265016e-01	8.588664e-01
144           	7.595983e-01	4.225299e-02	7.173453e-01	2.486792e-01	2.433019e-02	2.243490e-01	-1.000094e-01	-3.375461e-01	-1.639499e-01	1.384072e+00	5.280859e-01	8.559857e-01
145           	7.570171e-01	3.869439e-02	7.183227e-01	2.327080e-01	1.769209e-02	2.150159e-01	-9.866191e-02	-3.398142e-01	-1.614688e-01	1.383412e+00	5.302371e-01	8.531747e-01
146           	7.540082e-01	3.487194e-02	7.191363e-01	2.168277e-01	1.153878e-02	2.052889e-01	-9.687506e-02	-3.421322e-01	-1.588962e-01	1.383121e+00	5.326642e-01	8.504566e-01
147           	7.506468e-01	3.091822e-02	7.197286e-01	2.012875e-01	5.850008e-03	1.954375e-01	-9.479373e-02	-3.444052e-01	-1.563881e-01	1.382985e+00	5.351044e-01	8.478805e-01
148           	7.470326e-01	2.705649e-02	7.199761e-01	1.868435e-01	8.695355e-04	1.859739e-01	-9.255221e-02	-3.464598e-01	-1.540441e-01	1.382730e+00	5.373212e-01	8.454093e-01
149           	7.433404e-01	2.339635e-02	7.199441e-01	1.734525e-01	-3.486217e-03	1.769387e-01	-9.021246e-02	-3.482739e-01	-1.519981e-01	1.382324e+00	5.391638e-01	8.431599e-01
150           	7.398710e-01	2.031014e-02	7.195609e-01	1.620197e-01	-6.825841e-03	1.688455e-01	-8.783569e-02	-3.496254e-01	-1.503452e-01	1.381565e+00	5.404373e-01	8.411277e-01
151           	7.368234e-01	1.787870e-02	7.189447e-01	1.524946e-01	-9.224708e-03	1.617193e-01	-8.547201e-02	-3.505330e-01	-1.491295e-01	1.380612e+00	5.411767e-01	8.394356e-01
152           	7.343582e-01	1.636095e-02	7.179972e-01	1.458578e-01	-1.033875e-02	1.561965e-01	-8.326763e-02	-3.508181e-01	-1.483379e-01	1.379492e+00	5.414082e-01	8.380841e-01
153           	7.324468e-01	1.559393e-02	7.168529e-01	1.416584e-01	-1.037283e-02	1.520313e-01	-8.120204e-02	-3.506295e-01	-1.478900e-01	1.378567e+00	5.413935e-01	8.371735e-01
154           	7.310216e-01	1.556703e-02	7.154546e-01	1.400233e-01	-9.379572e-03	1.494028e-01	-7.939121e-02	-3.499438e-01	-1.476918e-01	1.377796e+00	5.412059e-01	8.365896e-01
155           	7.299030e-01	1.602826e-02	7.138748e-01	1.404897e-01	-7.568596e-03	1.480583e-01	-7.781346e-02	-3.489233e-01	-1.476327e-01	1.377409e+00	5.410717e-01	8.363372e-01
156           	7.289521e-01	1.686666e-02	7.120855e-01	1.426659e-01	-5.334680e-03	1.480006e-01	-7.666764e-02	-3.476094e-01	-1.476440e-01	1.377232e+00	5.409720e-01	8.362600e-01
157           	7.280698e-01	1.794042e-02	7.101293e-01	1.463724e-01	-2.751763e-03	1.491241e-01	-7.593794e-02	-3.460945e-01	-1.476723e-01	1.377378e+00	5.410169e-01	8.363615e-01
158           	7.271697e-01	1.912141e-02	7.080483e-01	1.509195e-01	-3.311725e-04	1.512506e-01	-7.579091e-02	-3.444634e-01	-1.477093e-01	1.377613e+00	5.410973e-01	8.365158e-01
159           	7.262711e-01	2.035881e-02	7.059123e-01	1.562878e-01	1.910710e-03	1.543771e-01	-7.623319e-02	-3.427767e-01	-1.477539e-01	1.378026e+00	5.412589e-01	8.367667e-01
160           	7.254027e-01	2.159002e-02	7.038127e-01	1.619077e-01	3.652791e-03	1.582549e-01	-7.730108e-02	-3.411114e-01	-1.478834e-01	1.378450e+00	5.413414e-01	8.371082e-01
161           	7.247243e-01	2.282800e-02	7.018963e-01	1.675891e-01	4.905203e-03	1.626839e-01	-7.888935e-02	-3.395341e-01	-1.481714e-01	1.378901e+00	5.412793e-01	8.376221e-01
162           	7.242538e-01	2.407169e-02	7.001822e-01	1.730375e-01	5.506382e-03	1.675311e-01	-8.101237e-02	-3.380552e-01	-1.486491e-01	1.379190e+00	5.409460e-01	8.382441e-01
163           	7.240593e-01	2.535173e-02	6.987075e-01	1.783171e-01	5.536981e-03	1.727801e-01	-8.362155e-02	-3.366779e-01	-1.493042e-01	1.379345e+00	5.403683e-01	8.389766e-01
164           	7.241022e-01	2.661004e-02	6.974922e-01	1.828923e-01	4.795203e-03	1.780970e-01	-8.665092e-02	-3.354411e-01	-1.501297e-01	1.379152e+00	5.394465e-01	8.397059e-01
165           	7.243519e-01	2.790901e-02	6.964429e-01	1.870981e-01	3.482824e-03	1.836153e-01	-9.006621e-02	-3.342669e-01	-1.511301e-01	1.378568e+00	5.381538e-01	8.404140e-01
166           	7.246934e-01	2.924100e-02	6.954524e-01	1.908458e-01	1.654226e-03	1.891916e-01	-9.376870e-02	-3.331057e-01	-1.522570e-01	1.377400e+00	5.364430e-01	8.409569e-01
167           	7.250404e-01	3.063707e-02	6.944034e-01	1.945796e-01	-4.438977e-04	1.950235e-01	-9.773372e-02	-3.318831e-01	-1.534426e-01	1.375770e+00	5.344425e-01	8.413277e-01
168           	7.253155e-01	3.204625e-02	6.932693e-01	1.979597e-01	-2.771591e-03	2.007313e-01	-1.017514e-01	-3.306115e-01	-1.546121e-01	1.373628e+00	5.322020e-01	8.414262e-01