# Force and moment coefficients
# dragDir     : (1.000000e+00 0.000000e+00 0.000000e+00)
# sideDir     : (0.000000e+00 1.000000e+00 0.000000e+00)
# liftDir     : (0.000000e+00 0.000000e+00 1.000000e+00)
# rollAxis    : (1.000000e+00 0.000000e+00 0.000000e+00)
# pitchAxis   : (0.000000e+00 1.000000e+00 0.000000e+00)
# yawAxis     : (0.000000e+00 0.000000e+00 1.000000e+00)
# magUInf     : 1.750000e+01
# lRef        : 1.854000e+00
# Aref        : 6.450000e-01
# CofR        : (0.000000e+00 0.000000e+00 1.000000e+00)
#
# Time        	Cd            	Cd(f)         	Cd(r)         	Cl            	Cl(f)         	Cl(r)         	CmPitch       	CmRoll        	CmYaw         	Cs            	Cs(f)         	Cs(r)         
1             	2.477919e-01	1.375022e-01	1.102897e-01	-6.846599e-01	-7.082312e-01	2.357122e-02	-3.659012e-01	1.360630e-02	4.137230e-02	5.059160e-01	2.943303e-01	2.115857e-01
2             	3.852984e-01	4.132891e-01	-2.799069e-02	-4.564609e-01	-6.457426e-01	1.892817e-01	-4.175122e-01	2.206399e-01	6.776154e-02	1.171947e+00	6.537351e-01	5.182120e-01
3             	5.204856e-01	6.734733e-01	-1.529876e-01	-2.285241e-01	-5.958114e-01	3.672873e-01	-4.815493e-01	4.132305e-01	9.195426e-02	1.787094e+00	9.855011e-01	8.015925e-01
4             	5.858870e-01	8.324200e-01	-2.465331e-01	-5.354527e-02	-5.577324e-01	5.041872e-01	-5.309598e-01	5.394766e-01	1.154632e-01	2.181230e+00	1.206078e+00	9.751519e-01
5             	5.555265e-01	8.627190e-01	-3.071925e-01	5.200412e-02	-5.241444e-01	5.761486e-01	-5.501465e-01	5.849558e-01	1.384673e-01	2.305077e+00	1.291006e+00	1.014071e+00
6             	4.467957e-01	7.874294e-01	-3.406338e-01	9.985894e-02	-4.914025e-01	5.912614e-01	-5.413320e-01	5.640316e-01	1.588790e-01	2.204566e+00	1.261162e+00	9.434038e-01
7             	3.049606e-01	6.584658e-01	-3.535052e-01	1.100292e-01	-4.628268e-01	5.728560e-01	-5.178414e-01	5.059855e-01	1.737266e-01	1.979829e+00	1.163641e+00	8.161879e-01
8             	1.782041e-01	5.326029e-01	-3.543988e-01	1.149541e-01	-4.420110e-01	5.569650e-01	-4.994880e-01	4.435009e-01	1.811661e-01	1.737118e+00	1.049725e+00	6.873931e-01
9             	1.023986e-01	4.497479e-01	-3.473493e-01	1.272222e-01	-4.317273e-01	5.589495e-01	-4.953384e-01	3.985486e-01	1.807148e-01	1.555272e+00	9.583509e-01	5.969213e-01
10            	9.096832e-02	4.266887e-01	-3.357204e-01	1.518817e-01	-4.295710e-01	5.814527e-01	-5.055119e-01	3.812046e-01	1.737220e-01	1.470675e+00	9.090593e-01	5.616153e-01
11            	1.336472e-01	4.571611e-01	-3.235139e-01	1.889660e-01	-4.329703e-01	6.219362e-01	-5.274533e-01	3.903375e-01	1.629435e-01	1.479469e+00	9.026780e-01	5.767910e-01
12            	2.066336e-01	5.198267e-01	-3.131931e-01	2.316991e-01	-4.371289e-01	6.688280e-01	-5.529785e-01	4.165099e-01	1.508927e-01	1.550961e+00	9.263730e-01	6.245876e-01
13            	2.821885e-01	5.900866e-01	-3.078982e-01	2.777225e-01	-4.365181e-01	7.142406e-01	-5.753793e-01	4.489924e-01	1.400547e-01	1.645469e+00	9.627890e-01	6.826796e-01
14            	3.391511e-01	6.476005e-01	-3.084494e-01	3.224201e-01	-4.252260e-01	7.476461e-01	-5.864361e-01	4.780249e-01	1.310287e-01	1.728361e+00	9.952090e-01	7.331516e-01
15            	3.669943e-01	6.813568e-01	-3.143625e-01	3.621901e-01	-4.019496e-01	7.641397e-01	-5.830446e-01	4.978596e-01	1.239898e-01	1.779243e+00	1.013611e+00	7.656315e-01
16            	3.662946e-01	6.903805e-01	-3.240859e-01	3.963980e-01	-3.690847e-01	7.654827e-01	-5.672837e-01	5.072332e-01	1.184575e-01	1.793296e+00	1.015105e+00	7.781905e-01
17            	3.456166e-01	6.810275e-01	-3.354110e-01	4.247965e-01	-3.316444e-01	7.564409e-01	-5.440426e-01	5.082192e-01	1.138755e-01	1.778144e+00	1.002947e+00	7.751963e-01
18            	3.172582e-01	6.630877e-01	-3.458295e-01	4.481079e-01	-2.949929e-01	7.431008e-01	-5.190468e-01	5.044586e-01	1.097655e-01	1.747379e+00	9.834551e-01	7.639241e-01
19            	2.922770e-01	6.459863e-01	-3.537093e-01	4.681531e-01	-2.629782e-01	7.311314e-01	-4.970548e-01	4.998478e-01	1.058860e-01	1.714928e+00	9.633498e-01	7.515778e-01
20            	2.778828e-01	6.363535e-01	-3.584707e-01	4.877055e-01	-2.371136e-01	7.248191e-01	-4.809663e-01	4.974121e-01	1.021859e-01	1.690990e+00	9.476809e-01	7.433090e-01
21            	2.763043e-01	6.367752e-01	-3.604709e-01	5.091341e-01	-2.169984e-01	7.261324e-01	-4.715654e-01	4.986230e-01	9.868033e-02	1.679970e+00	9.386654e-01	7.413047e-01
22            	2.853233e-01	6.460243e-01	-3.607011e-01	5.333977e-01	-2.004145e-01	7.338122e-01	-4.671134e-01	5.033627e-01	9.544499e-02	1.681134e+00	9.360119e-01	7.451220e-01
23            	3.005649e-01	6.610437e-01	-3.604788e-01	5.616941e-01	-1.847767e-01	7.464708e-01	-4.656238e-01	5.107612e-01	9.255606e-02	1.690519e+00	9.378158e-01	7.527037e-01
24            	3.168528e-01	6.776603e-01	-3.608075e-01	5.926440e-01	-1.684826e-01	7.611266e-01	-4.648046e-01	5.192339e-01	9.008348e-02	1.702894e+00	9.415304e-01	7.613635e-01
25            	3.303839e-01	6.924524e-01	-3.620685e-01	6.243807e-01	-1.507404e-01	7.751211e-01	-4.629307e-01	5.272604e-01	8.801911e-02	1.713690e+00	9.448643e-01	7.688261e-01
26            	3.391681e-01	7.033425e-01	-3.641744e-01	6.542291e-01	-1.325612e-01	7.867903e-01	-4.596757e-01	5.337585e-01	8.635149e-02	1.720215e+00	9.464590e-01	7.737561e-01
27            	3.432734e-01	7.098520e-01	-3.665787e-01	6.801601e-01	-1.151018e-01	7.952619e-01	-4.551819e-01	5.382154e-01	8.503582e-02	1.721689e+00	9.458805e-01	7.758088e-01
28            	3.439930e-01	7.127110e-01	-3.687180e-01	7.011084e-01	-9.971060e-02	8.008190e-01	-4.502648e-01	5.407145e-01	8.407939e-02	1.718988e+00	9.435732e-01	7.754144e-01
29            	3.432791e-01	7.130712e-01	-3.697922e-01	7.161012e-01	-8.743495e-02	8.035361e-01	-4.454855e-01	5.414317e-01	8.337243e-02	1.713565e+00	9.401548e-01	7.734100e-01
30            	3.429360e-01	7.126955e-01	-3.697594e-01	7.267118e-01	-7.857422e-02	8.052861e-01	-4.419301e-01	5.412275e-01	8.294362e-02	1.707404e+00	9.366458e-01	7.707585e-01
31            	3.441402e-01	7.121906e-01	-3.680504e-01	7.314843e-01	-7.457797e-02	8.060623e-01	-4.403201e-01	5.401205e-01	8.283461e-02	1.701607e+00	9.336379e-01	7.679687e-01
32            	3.473967e-01	7.124910e-01	-3.650942e-01	7.324841e-01	-7.350729e-02	8.059914e-01	-4.397493e-01	5.387926e-01	8.275345e-02	1.697257e+00	9.313821e-01	7.658752e-01
33            	3.523907e-01	7.134299e-01	-3.610392e-01	7.298596e-01	-7.555131e-02	8.054109e-01	-4.404811e-01	5.372345e-01	8.278712e-02	1.694333e+00	9.299537e-01	7.643794e-01
34            	3.582935e-01	7.149389e-01	-3.566454e-01	7.254157e-01	-7.903858e-02	8.044543e-01	-4.417464e-01	5.357921e-01	8.284603e-02	1.692714e+00	9.292029e-01	7.635109e-01
35            	3.644396e-01	7.168127e-01	-3.523731e-01	7.203045e-01	-8.282327e-02	8.031277e-01	-4.429755e-01	5.345929e-01	8.280634e-02	1.692022e+00	9.288171e-01	7.632044e-01
36            	3.702340e-01	7.188722e-01	-3.486382e-01	7.154242e-01	-8.601019e-02	8.014344e-01	-4.437223e-01	5.337552e-01	8.261541e-02	1.691929e+00	9.285797e-01	7.633489e-01
37            	3.754001e-01	7.210248e-01	-3.456247e-01	7.113595e-01	-8.818299e-02	7.995425e-01	-4.438627e-01	5.333248e-01	8.224823e-02	1.692196e+00	9.283463e-01	7.638499e-01
38            	3.798989e-01	7.232245e-01	-3.433256e-01	7.083543e-01	-8.875650e-02	7.971108e-01	-4.429336e-01	5.332751e-01	8.161845e-02	1.692667e+00	9.279518e-01	7.647149e-01
39            	3.838617e-01	7.254323e-01	-3.415706e-01	7.060713e-01	-8.810329e-02	7.941746e-01	-4.411389e-01	5.335015e-01	8.070686e-02	1.693290e+00	9.273519e-01	7.659382e-01
40            	3.874515e-01	7.276906e-01	-3.402391e-01	7.044369e-01	-8.665541e-02	7.910923e-01	-4.388739e-01	5.339649e-01	7.955783e-02	1.694062e+00	9.265887e-01	7.674731e-01
41            	3.908664e-01	7.299304e-01	-3.390640e-01	7.024897e-01	-8.502236e-02	7.875121e-01	-4.362672e-01	5.344972e-01	7.814648e-02	1.695056e+00	9.256744e-01	7.693814e-01
42            	3.942870e-01	7.320586e-01	-3.377717e-01	6.994592e-01	-8.363512e-02	7.830943e-01	-4.333647e-01	5.349151e-01	7.646091e-02	1.696200e+00	9.245607e-01	7.716389e-01
43            	3.978272e-01	7.339601e-01	-3.361329e-01	6.944363e-01	-8.292567e-02	7.773619e-01	-4.301438e-01	5.350465e-01	7.454052e-02	1.697541e+00	9.233113e-01	7.742302e-01
44            	4.014219e-01	7.355296e-01	-3.341077e-01	6.874161e-01	-8.291918e-02	7.703352e-01	-4.266272e-01	5.348186e-01	7.247238e-02	1.698947e+00	9.219458e-01	7.770010e-01
45            	4.049616e-01	7.366420e-01	-3.316804e-01	6.782890e-01	-8.362850e-02	7.619175e-01	-4.227730e-01	5.341612e-01	7.036859e-02	1.700332e+00	9.205347e-01	7.797975e-01
46            	4.083430e-01	7.372203e-01	-3.288773e-01	6.673973e-01	-8.477043e-02	7.521677e-01	-4.184691e-01	5.330488e-01	6.832657e-02	1.701483e+00	9.190681e-01	7.824150e-01
47            	4.114857e-01	7.372624e-01	-3.257768e-01	6.551744e-01	-8.594206e-02	7.411165e-01	-4.135293e-01	5.315196e-01	6.642773e-02	1.702312e+00	9.175838e-01	7.847283e-01
48            	4.143460e-01	7.368299e-01	-3.224839e-01	6.423909e-01	-8.656797e-02	7.289588e-01	-4.077634e-01	5.296569e-01	6.470099e-02	1.702664e+00	9.160328e-01	7.866308e-01
49            	4.170049e-01	7.358964e-01	-3.188915e-01	6.287021e-01	-8.669770e-02	7.153998e-01	-4.010488e-01	5.273939e-01	6.313259e-02	1.702544e+00	9.144046e-01	7.881394e-01
50            	4.196309e-01	7.345478e-01	-3.149168e-01	6.142033e-01	-8.664172e-02	7.008450e-01	-3.937434e-01	5.247323e-01	6.168625e-02	1.701942e+00	9.126572e-01	7.892847e-01
51            	4.223353e-01	7.327904e-01	-3.104551e-01	5.985316e-01	-8.688795e-02	6.854195e-01	-3.861537e-01	5.216227e-01	6.032525e-02	1.700914e+00	9.107823e-01	7.901318e-01
52            	4.252279e-01	7.307405e-01	-3.055126e-01	5.818219e-01	-8.802784e-02	6.698498e-01	-3.789388e-01	5.181265e-01	5.906558e-02	1.699563e+00	9.088473e-01	7.907162e-01
53            	4.283595e-01	7.284631e-01	-3.001036e-01	5.641956e-01	-9.048458e-02	6.546801e-01	-3.725824e-01	5.142834e-01	5.795396e-02	1.697967e+00	9.069374e-01	7.910295e-01
54            	4.317010e-01	7.261166e-01	-2.944156e-01	5.464866e-01	-9.411680e-02	6.406034e-01	-3.673601e-01	5.102661e-01	5.701175e-02	1.696139e+00	9.050810e-01	7.910575e-01
55            	4.352464e-01	7.237910e-01	-2.885447e-01	5.289380e-01	-9.878596e-02	6.277240e-01	-3.632550e-01	5.061678e-01	5.626555e-02	1.694176e+00	9.033534e-01	7.908223e-01
56            	4.389496e-01	7.215147e-01	-2.825650e-01	5.119424e-01	-1.043510e-01	6.162935e-01	-3.603223e-01	5.020399e-01	5.570073e-02	1.691994e+00	9.016976e-01	7.902962e-01
57            	4.428497e-01	7.192934e-01	-2.764437e-01	4.953982e-01	-1.106949e-01	6.060931e-01	-3.583940e-01	4.978685e-01	5.528703e-02	1.689604e+00	9.000888e-01	7.895147e-01
58            	4.469688e-01	7.172659e-01	-2.702971e-01	4.800358e-01	-1.174388e-01	5.974746e-01	-3.574567e-01	4.937815e-01	5.494317e-02	1.686978e+00	8.984323e-01	7.885460e-01
59            	4.513950e-01	7.154976e-01	-2.641026e-01	4.660863e-01	-1.243903e-01	5.904766e-01	-3.574334e-01	4.898001e-01	5.455070e-02	1.684081e+00	8.965914e-01	7.874900e-01
60            	4.561904e-01	7.140312e-01	-2.578408e-01	4.536078e-01	-1.314310e-01	5.850388e-01	-3.582349e-01	4.859360e-01	5.399019e-02	1.680897e+00	8.944387e-01	7.864583e-01
61            	4.613819e-01	7.129054e-01	-2.515234e-01	4.426954e-01	-1.385863e-01	5.812817e-01	-3.599340e-01	4.822144e-01	5.321739e-02	1.677441e+00	8.919379e-01	7.855031e-01
62            	4.669356e-01	7.121095e-01	-2.451739e-01	4.332532e-01	-1.458351e-01	5.790883e-01	-3.624617e-01	4.786417e-01	5.220125e-02	1.673763e+00	8.890827e-01	7.846802e-01
63            	4.728154e-01	7.117424e-01	-2.389270e-01	4.256105e-01	-1.530092e-01	5.786197e-01	-3.658144e-01	4.753347e-01	5.095762e-02	1.669996e+00	8.859557e-01	7.840404e-01
64            	4.789248e-01	7.117820e-01	-2.328572e-01	4.196084e-01	-1.600964e-01	5.797048e-01	-3.699006e-01	4.723196e-01	4.954487e-02	1.666245e+00	8.826675e-01	7.835778e-01
65            	4.851100e-01	7.121831e-01	-2.270731e-01	4.150985e-01	-1.669818e-01	5.820803e-01	-3.745311e-01	4.696281e-01	4.806979e-02	1.662636e+00	8.793880e-01	7.832484e-01
66            	4.912818e-01	7.128610e-01	-2.215792e-01	4.114631e-01	-1.738456e-01	5.853087e-01	-3.795772e-01	4.672201e-01	4.659167e-02	1.659359e+00	8.762710e-01	7.830877e-01
67            	4.973640e-01	7.139432e-01	-2.165792e-01	4.092041e-01	-1.802180e-01	5.894221e-01	-3.848200e-01	4.652612e-01	4.515224e-02	1.656587e+00	8.734460e-01	7.831415e-01
68            	5.033532e-01	7.155646e-01	-2.122114e-01	4.089413e-01	-1.855726e-01	5.945139e-01	-3.900433e-01	4.638880e-01	4.372989e-02	1.654370e+00	8.709148e-01	7.834550e-01
69            	5.092226e-01	7.177107e-01	-2.084881e-01	4.105108e-01	-1.899949e-01	6.005056e-01	-3.952503e-01	4.630994e-01	4.228013e-02	1.652711e+00	8.686355e-01	7.840753e-01
70            	5.149315e-01	7.204741e-01	-2.055426e-01	4.144780e-01	-1.931360e-01	6.076139e-01	-4.003749e-01	4.630084e-01	4.078048e-02	1.651589e+00	8.665749e-01	7.850140e-01
71            	5.204220e-01	7.239250e-01	-2.035030e-01	4.211268e-01	-1.947599e-01	6.158868e-01	-4.053233e-01	4.637140e-01	3.920456e-02	1.651048e+00	8.647284e-01	7.863193e-01
72            	5.256134e-01	7.281167e-01	-2.025033e-01	4.306984e-01	-1.945536e-01	6.252520e-01	-4.099028e-01	4.653100e-01	3.759600e-02	1.651144e+00	8.631681e-01	7.879761e-01
73            	5.304074e-01	7.329429e-01	-2.025354e-01	4.429232e-01	-1.925945e-01	6.355178e-01	-4.140562e-01	4.677391e-01	3.601293e-02	1.651806e+00	8.619157e-01	7.898899e-01
74            	5.347542e-01	7.382612e-01	-2.035070e-01	4.571555e-01	-1.889752e-01	6.461307e-01	-4.175529e-01	4.708841e-01	3.453619e-02	1.652979e+00	8.610255e-01	7.919532e-01
75            	5.386332e-01	7.438781e-01	-2.052449e-01	4.727178e-01	-1.839028e-01	6.566206e-01	-4.202617e-01	4.745615e-01	3.318332e-02	1.654505e+00	8.604360e-01	7.940693e-01
76            	5.420422e-01	7.494873e-01	-2.074451e-01	4.880521e-01	-1.780059e-01	6.660580e-01	-4.220319e-01	4.784662e-01	3.197950e-02	1.656284e+00	8.601216e-01	7.961626e-01
77            	5.450376e-01	7.548403e-01	-2.098027e-01	5.020649e-01	-1.718866e-01	6.739516e-01	-4.229191e-01	4.823215e-01	3.091387e-02	1.658143e+00	8.599855e-01	7.981578e-01
78            	5.476440e-01	7.596747e-01	-2.120307e-01	5.135311e-01	-1.662633e-01	6.797944e-01	-4.230289e-01	4.858527e-01	2.999604e-02	1.659973e+00	8.599823e-01	7.999903e-01
79            	5.498876e-01	7.638495e-01	-2.139619e-01	5.219171e-01	-1.615116e-01	6.834287e-01	-4.224701e-01	4.889057e-01	2.921068e-02	1.661687e+00	8.600543e-01	8.016330e-01
80            	5.517826e-01	7.673046e-01	-2.155220e-01	5.270190e-01	-1.577732e-01	6.847921e-01	-4.212826e-01	4.914133e-01	2.855349e-02	1.663269e+00	8.601882e-01	8.030812e-01
81            	5.533417e-01	7.700497e-01	-2.167080e-01	5.291165e-01	-1.548880e-01	6.840045e-01	-4.194462e-01	4.933788e-01	2.803383e-02	1.664685e+00	8.603766e-01	8.043089e-01
82            	5.546095e-01	7.721290e-01	-2.175195e-01	5.284257e-01	-1.528629e-01	6.812887e-01	-4.170758e-01	4.948243e-01	2.763268e-02	1.665963e+00	8.606143e-01	8.053489e-01
83            	5.556324e-01	7.735527e-01	-2.179203e-01	5.250842e-01	-1.516171e-01	6.767013e-01	-4.141592e-01	4.957365e-01	2.733870e-02	1.667071e+00	8.608741e-01	8.061967e-01
84            	5.564261e-01	7.743524e-01	-2.179263e-01	5.193576e-01	-1.510887e-01	6.704463e-01	-4.107675e-01	4.961394e-01	2.711950e-02	1.668007e+00	8.611228e-01	8.068838e-01
85            	5.570284e-01	7.745597e-01	-2.175313e-01	5.113905e-01	-1.513397e-01	6.627302e-01	-4.070350e-01	4.960455e-01	2.696295e-02	1.668765e+00	8.613453e-01	8.074194e-01
86            	5.574587e-01	7.741353e-01	-2.166766e-01	5.012419e-01	-1.524969e-01	6.537387e-01	-4.031178e-01	4.954059e-01	2.685450e-02	1.669236e+00	8.614727e-01	8.077637e-01
87            	5.577691e-01	7.731772e-01	-2.154081e-01	4.893157e-01	-1.544694e-01	6.437851e-01	-3.991273e-01	4.942926e-01	2.679223e-02	1.669436e+00	8.615101e-01	8.079256e-01
88            	5.579853e-01	7.717879e-01	-2.138026e-01	4.761106e-01	-1.571089e-01	6.332194e-01	-3.951641e-01	4.927953e-01	2.675841e-02	1.669388e+00	8.614525e-01	8.079356e-01
89            	5.581103e-01	7.700436e-01	-2.119333e-01	4.620378e-01	-1.602717e-01	6.223094e-01	-3.912905e-01	4.909885e-01	2.672215e-02	1.669085e+00	8.612644e-01	8.078201e-01
90            	5.581371e-01	7.680945e-01	-2.099575e-01	4.478605e-01	-1.636951e-01	6.115556e-01	-3.876253e-01	4.890260e-01	2.666504e-02	1.668609e+00	8.609694e-01	8.076393e-01
91            	5.581029e-01	7.660697e-01	-2.079668e-01	4.341883e-01	-1.671563e-01	6.013446e-01	-3.842504e-01	4.870182e-01	2.654927e-02	1.667963e+00	8.605310e-01	8.074325e-01
92            	5.580007e-01	7.640743e-01	-2.060736e-01	4.216137e-01	-1.704529e-01	5.920666e-01	-3.812597e-01	4.850739e-01	2.638084e-02	1.667208e+00	8.599847e-01	8.072230e-01
93            	5.578373e-01	7.621853e-01	-2.043480e-01	4.106007e-01	-1.733443e-01	5.839450e-01	-3.786446e-01	4.832666e-01	2.614828e-02	1.666326e+00	8.593114e-01	8.070148e-01
94            	5.576947e-01	7.604552e-01	-2.027605e-01	4.012089e-01	-1.758685e-01	5.770774e-01	-3.764730e-01	4.816078e-01	2.584436e-02	1.665326e+00	8.585075e-01	8.068188e-01
95            	5.576613e-01	7.589310e-01	-2.012697e-01	3.935863e-01	-1.779711e-01	5.715574e-01	-3.747643e-01	4.801004e-01	2.546341e-02	1.664150e+00	8.575384e-01	8.066115e-01
96            	5.577735e-01	7.576472e-01	-1.998737e-01	3.877044e-01	-1.796310e-01	5.673353e-01	-3.734831e-01	4.787604e-01	2.501867e-02	1.662846e+00	8.564418e-01	8.064045e-01
97            	5.580411e-01	7.566008e-01	-1.985597e-01	3.834403e-01	-1.808777e-01	5.643180e-01	-3.725979e-01	4.775802e-01	2.452450e-02	1.661450e+00	8.552494e-01	8.062004e-01
98            	5.584420e-01	7.558050e-01	-1.973630e-01	3.807297e-01	-1.817542e-01	5.624839e-01	-3.721190e-01	4.765840e-01	2.402143e-02	1.660052e+00	8.540475e-01	8.060047e-01
99            	5.589799e-01	7.552175e-01	-1.962376e-01	3.791650e-01	-1.824533e-01	5.616183e-01	-3.720358e-01	4.757276e-01	2.351463e-02	1.658749e+00	8.528891e-01	8.058598e-01
100           	5.596700e-01	7.549295e-01	-1.952596e-01	3.790594e-01	-1.828014e-01	5.618608e-01	-3.723311e-01	4.750945e-01	2.299993e-02	1.657609e+00	8.518043e-01	8.058045e-01
101           	5.605033e-01	7.549624e-01	-1.944591e-01	3.805604e-01	-1.827950e-01	5.633554e-01	-3.730752e-01	4.747107e-01	2.247807e-02	1.656617e+00	8.507866e-01	8.058305e-01
102           	5.613939e-01	7.553713e-01	-1.939774e-01	3.838870e-01	-1.823815e-01	5.662685e-01	-3.743250e-01	4.746743e-01	2.200740e-02	1.655910e+00	8.499624e-01	8.059476e-01
103           	5.621796e-01	7.561054e-01	-1.939258e-01	3.891685e-01	-1.814574e-01	5.706259e-01	-3.760416e-01	4.750156e-01	2.163970e-02	1.655473e+00	8.493764e-01	8.060970e-01
104           	5.628529e-01	7.572162e-01	-1.943633e-01	3.964862e-01	-1.799488e-01	5.764350e-01	-3.781919e-01	4.757898e-01	2.137675e-02	1.655396e+00	8.490746e-01	8.063210e-01
105           	5.634037e-01	7.587255e-01	-1.953217e-01	4.058176e-01	-1.778338e-01	5.836514e-01	-3.807426e-01	4.770236e-01	2.120380e-02	1.655739e+00	8.490731e-01	8.066655e-01
106           	5.639295e-01	7.606836e-01	-1.967540e-01	4.169162e-01	-1.751417e-01	5.920579e-01	-3.835998e-01	4.787188e-01	2.112176e-02	1.656579e+00	8.494111e-01	8.071675e-01
107           	5.645673e-01	7.630718e-01	-1.985045e-01	4.292880e-01	-1.719422e-01	6.012302e-01	-3.865862e-01	4.807882e-01	2.110667e-02	1.657847e+00	8.500302e-01	8.078169e-01
108           	5.653793e-01	7.658197e-01	-2.004404e-01	4.424197e-01	-1.682608e-01	6.106804e-01	-3.894706e-01	4.831300e-01	2.116326e-02	1.659466e+00	8.508964e-01	8.085698e-01
109           	5.663468e-01	7.688359e-01	-2.024891e-01	4.559997e-01	-1.641200e-01	6.201198e-01	-3.921199e-01	4.856625e-01	2.130329e-02	1.661318e+00	8.519622e-01	8.093556e-01
110           	5.674919e-01	7.720101e-01	-2.045182e-01	4.697137e-01	-1.595209e-01	6.292345e-01	-3.943777e-01	4.882642e-01	2.148274e-02	1.663148e+00	8.530569e-01	8.100914e-01
111           	5.687623e-01	7.751413e-01	-2.063791e-01	4.829990e-01	-1.546797e-01	6.376786e-01	-3.961792e-01	4.907602e-01	2.164411e-02	1.664690e+00	8.539890e-01	8.107007e-01
112           	5.701226e-01	7.780502e-01	-2.079275e-01	4.954118e-01	-1.498804e-01	6.452921e-01	-3.975862e-01	4.929889e-01	2.171162e-02	1.665674e+00	8.545484e-01	8.111252e-01
113           	5.715177e-01	7.806027e-01	-2.090850e-01	5.066983e-01	-1.453469e-01	6.520452e-01	-3.986961e-01	4.948438e-01	2.157137e-02	1.665914e+00	8.545282e-01	8.113855e-01
114           	5.729867e-01	7.826592e-01	-2.096725e-01	5.162768e-01	-1.413568e-01	6.576337e-01	-3.994952e-01	4.961659e-01	2.111096e-02	1.665210e+00	8.537158e-01	8.114938e-01
115           	5.746133e-01	7.841839e-01	-2.095706e-01	5.239324e-01	-1.380431e-01	6.619755e-01	-4.000093e-01	4.968773e-01	2.024259e-02	1.663490e+00	8.519874e-01	8.115022e-01
116           	5.764118e-01	7.851029e-01	-2.086911e-01	5.291938e-01	-1.356433e-01	6.648371e-01	-4.002402e-01	4.968970e-01	1.894315e-02	1.660721e+00	8.493036e-01	8.114173e-01
117           	5.784368e-01	7.854769e-01	-2.070401e-01	5.316517e-01	-1.343958e-01	6.660474e-01	-4.002216e-01	4.962585e-01	1.727595e-02	1.657193e+00	8.458723e-01	8.113204e-01
118           	5.806452e-01	7.852741e-01	-2.046288e-01	5.312651e-01	-1.344465e-01	6.657117e-01	-4.000791e-01	4.949514e-01	1.531868e-02	1.652945e+00	8.417913e-01	8.111539e-01
119           	5.830097e-01	7.845713e-01	-2.015615e-01	5.279996e-01	-1.358548e-01	6.638543e-01	-3.998545e-01	4.930664e-01	1.317135e-02	1.648288e+00	8.373152e-01	8.109725e-01
120           	5.853846e-01	7.833905e-01	-1.980059e-01	5.223457e-01	-1.384066e-01	6.607524e-01	-3.995795e-01	4.906982e-01	1.092088e-02	1.643290e+00	8.325660e-01	8.107242e-01
121           	5.876464e-01	7.817462e-01	-1.940998e-01	5.143627e-01	-1.420321e-01	6.563948e-01	-3.992134e-01	4.879230e-01	8.670922e-03	1.638194e+00	8.277680e-01	8.104261e-01
122           	5.896654e-01	7.797524e-01	-1.900870e-01	5.051220e-01	-1.462027e-01	6.513247e-01	-3.987637e-01	4.849197e-01	6.468955e-03	1.633019e+00	8.229782e-01	8.100403e-01
123           	5.913218e-01	7.774388e-01	-1.861170e-01	4.947464e-01	-1.507803e-01	6.455267e-01	-3.981535e-01	4.817779e-01	4.368061e-03	1.627971e+00	8.183536e-01	8.096175e-01
124           	5.925347e-01	7.748982e-01	-1.823635e-01	4.841343e-01	-1.553187e-01	6.394530e-01	-3.973859e-01	4.786308e-01	2.380143e-03	1.622953e+00	8.138566e-01	8.090963e-01
125           	5.932670e-01	7.722639e-01	-1.789969e-01	4.737791e-01	-1.595268e-01	6.333058e-01	-3.964163e-01	4.756304e-01	5.466084e-04	1.618104e+00	8.095985e-01	8.085053e-01
126           	5.935155e-01	7.696375e-01	-1.761220e-01	4.643154e-01	-1.631373e-01	6.274527e-01	-3.952950e-01	4.728798e-01	-1.091354e-03	1.613359e+00	8.055881e-01	8.077708e-01
127           	5.934028e-01	7.671638e-01	-1.737611e-01	4.558754e-01	-1.661997e-01	6.220751e-01	-3.941374e-01	4.704624e-01	-2.465981e-03	1.608926e+00	8.019969e-01	8.069289e-01
128           	5.930028e-01	7.649163e-01	-1.719136e-01	4.487273e-01	-1.687424e-01	6.174698e-01	-3.931061e-01	4.684149e-01	-3.576348e-03	1.604831e+00	7.988392e-01	8.059919e-01
129           	5.924619e-01	7.629934e-01	-1.705314e-01	4.427264e-01	-1.708949e-01	6.136213e-01	-3.922581e-01	4.667624e-01	-4.395378e-03	1.601276e+00	7.962429e-01	8.050336e-01
130           	5.918676e-01	7.614231e-01	-1.695555e-01	4.379943e-01	-1.726643e-01	6.106587e-01	-3.916615e-01	4.654893e-01	-4.922555e-03	1.598172e+00	7.941633e-01	8.040084e-01
131           	5.913638e-01	7.601950e-01	-1.688312e-01	4.342494e-01	-1.742480e-01	6.084974e-01	-3.913727e-01	4.645131e-01	-5.156791e-03	1.595464e+00	7.925753e-01	8.028889e-01
132           	5.909450e-01	7.592291e-01	-1.682842e-01	4.314036e-01	-1.756902e-01	6.070938e-01	-3.913920e-01	4.637567e-01	-5.159077e-03	1.592996e+00	7.913390e-01	8.016572e-01
133           	5.907072e-01	7.585288e-01	-1.678216e-01	4.292338e-01	-1.772108e-01	6.064446e-01	-3.918277e-01	4.631752e-01	-4.985134e-03	1.590767e+00	7.903981e-01	8.003684e-01
134           	5.905507e-01	7.579546e-01	-1.674039e-01	4.275520e-01	-1.788392e-01	6.063912e-01	-3.926152e-01	4.626792e-01	-4.709500e-03	1.588613e+00	7.895970e-01	7.990160e-01
135           	5.904481e-01	7.574831e-01	-1.670350e-01	4.263200e-01	-1.806340e-01	6.069540e-01	-3.937940e-01	4.622590e-01	-4.359600e-03	1.586544e+00	7.889124e-01	7.976316e-01
136           	5.903448e-01	7.570829e-01	-1.667381e-01	4.254445e-01	-1.824297e-01	6.078741e-01	-3.951519e-01	4.619105e-01	-3.958722e-03	1.584591e+00	7.883370e-01	7.962544e-01
137           	5.902411e-01	7.567592e-01	-1.665181e-01	4.247779e-01	-1.843056e-01	6.090835e-01	-3.966945e-01	4.616387e-01	-3.501962e-03	1.582837e+00	7.879164e-01	7.949204e-01
138           	5.901414e-01	7.565036e-01	-1.663622e-01	4.241435e-01	-1.861382e-01	6.102817e-01	-3.982099e-01	4.614329e-01	-3.001148e-03	1.581316e+00	7.876566e-01	7.936589e-01
139           	5.901550e-01	7.563403e-01	-1.661853e-01	4.232546e-01	-1.880476e-01	6.113022e-01	-3.996749e-01	4.612628e-01	-2.479360e-03	1.580077e+00	7.875592e-01	7.925180e-01
140           	5.903551e-01	7.562407e-01	-1.658856e-01	4.217312e-01	-1.900629e-01	6.117941e-01	-4.009285e-01	4.610631e-01	-1.976624e-03	1.579117e+00	7.875816e-01	7.915349e-01
141           	5.908324e-01	7.562142e-01	-1.653818e-01	4.192910e-01	-1.922538e-01	6.115448e-01	-4.018993e-01	4.607980e-01	-1.484846e-03	1.578449e+00	7.877395e-01	7.907092e-01
142           	5.915717e-01	7.561992e-01	-1.646275e-01	4.158138e-01	-1.945214e-01	6.103351e-01	-4.024283e-01	4.604133e-01	-1.012057e-03	1.577964e+00	7.879701e-01	7.899942e-01
143           	5.925330e-01	7.561248e-01	-1.635918e-01	4.110575e-01	-1.969108e-01	6.079683e-01	-4.024396e-01	4.598583e-01	-5.364561e-04	1.577610e+00	7.882686e-01	7.893415e-01
144           	5.936609e-01	7.559651e-01	-1.623042e-01	4.050469e-01	-1.994692e-01	6.045161e-01	-4.019926e-01	4.591346e-01	-5.238340e-05	1.577380e+00	7.886374e-01	7.887421e-01
145           	5.948423e-01	7.556580e-01	-1.608157e-01	3.977646e-01	-2.022344e-01	5.999990e-01	-4.011167e-01	4.582369e-01	4.498597e-04	1.577257e+00	7.890785e-01	7.881788e-01
146           	5.960312e-01	7.552131e-01	-1.591819e-01	3.894638e-01	-2.052658e-01	5.947296e-01	-3.999977e-01	4.571975e-01	9.768823e-04	1.577243e+00	7.895985e-01	7.876447e-01
147           	5.971323e-01	7.546276e-01	-1.574953e-01	3.805088e-01	-2.084655e-01	5.889744e-01	-3.987199e-01	4.560614e-01	1.510077e-03	1.577299e+00	7.901595e-01	7.871394e-01
148           	5.981107e-01	7.539680e-01	-1.558572e-01	3.713524e-01	-2.117298e-01	5.830822e-01	-3.974060e-01	4.549126e-01	2.053569e-03	1.577452e+00	7.907797e-01	7.866725e-01
149           	5.989312e-01	7.532281e-01	-1.542969e-01	3.621147e-01	-2.150528e-01	5.771675e-01	-3.961101e-01	4.537625e-01	2.597616e-03	1.577660e+00	7.914274e-01	7.862322e-01
150           	5.995563e-01	7.524496e-01	-1.528933e-01	3.530901e-01	-2.183427e-01	5.714328e-01	-3.948878e-01	4.526715e-01	3.127916e-03	1.577965e+00	7.921104e-01	7.858546e-01
151           	6.000040e-01	7.516598e-01	-1.516558e-01	3.444497e-01	-2.215699e-01	5.660197e-01	-3.937948e-01	4.516578e-01	3.637214e-03	1.578312e+00	7.927933e-01	7.855189e-01
152           	6.003221e-01	7.509149e-01	-1.505928e-01	3.364850e-01	-2.246512e-01	5.611362e-01	-3.928937e-01	4.507539e-01	4.107522e-03	1.578678e+00	7.934463e-01	7.852313e-01
153           	6.005349e-01	7.502328e-01	-1.496979e-01	3.293300e-01	-2.275236e-01	5.568536e-01	-3.921886e-01	4.499653e-01	4.547618e-03	1.578976e+00	7.940358e-01	7.849406e-01
154           	6.006414e-01	7.496448e-01	-1.490033e-01	3.233014e-01	-2.300796e-01	5.533810e-01	-3.917303e-01	4.493241e-01	4.942364e-03	1.579159e+00	7.945217e-01	7.846370e-01
155           	6.006028e-01	7.491410e-01	-1.485383e-01	3.184943e-01	-2.322485e-01	5.507428e-01	-3.914957e-01	4.488397e-01	5.285201e-03	1.579172e+00	7.948714e-01	7.843010e-01
156           	6.003878e-01	7.487263e-01	-1.483385e-01	3.150974e-01	-2.339442e-01	5.490416e-01	-3.914929e-01	4.485324e-01	5.552304e-03	1.579009e+00	7.950566e-01	7.839520e-01
157           	5.999663e-01	7.483973e-01	-1.484309e-01	3.131711e-01	-2.350361e-01	5.482073e-01	-3.916217e-01	4.484141e-01	5.733231e-03	1.578635e+00	7.950509e-01	7.835845e-01
158           	5.993163e-01	7.481815e-01	-1.488652e-01	3.129574e-01	-2.353022e-01	5.482597e-01	-3.917810e-01	4.485233e-01	5.814395e-03	1.578024e+00	7.948263e-01	7.831975e-01
159           	5.984665e-01	7.480953e-01	-1.496288e-01	3.144594e-01	-2.346445e-01	5.491039e-01	-3.918742e-01	4.488621e-01	5.815286e-03	1.577138e+00	7.943842e-01	7.827536e-01
160           	5.974884e-01	7.481575e-01	-1.506691e-01	3.177101e-01	-2.330181e-01	5.507281e-01	-3.918731e-01	4.494133e-01	5.740454e-03	1.575906e+00	7.936933e-01	7.822124e-01
161           	5.965188e-01	7.484222e-01	-1.519034e-01	3.225911e-01	-2.305454e-01	5.531365e-01	-3.918410e-01	4.501628e-01	5.615335e-03	1.574363e+00	7.927967e-01	7.815661e-01
162           	5.956948e-01	7.488685e-01	-1.531737e-01	3.284094e-01	-2.275725e-01	5.559819e-01	-3.917772e-01	4.510211e-01	5.424032e-03	1.572597e+00	7.917226e-01	7.808745e-01
163           	5.951996e-01	7.495686e-01	-1.543689e-01	3.348795e-01	-2.243931e-01	5.592726e-01	-3.918328e-01	4.519688e-01	5.164433e-03	1.570765e+00	7.905472e-01	7.802183e-01
164           	5.951503e-01	7.504578e-01	-1.553074e-01	3.412464e-01	-2.214131e-01	5.626595e-01	-3.920363e-01	4.528826e-01	4.837198e-03	1.568920e+00	7.892971e-01	7.796227e-01
165           	5.956363e-01	7.515554e-01	-1.559191e-01	3.474648e-01	-2.187829e-01	5.662477e-01	-3.925153e-01	4.537373e-01	4.442703e-03	1.567096e+00	7.879908e-01	7.791054e-01
166           	5.966319e-01	7.527235e-01	-1.560916e-01	3.529033e-01	-2.167933e-01	5.696966e-01	-3.932450e-01	4.544075e-01	3.988844e-03	1.565265e+00	7.866212e-01	7.786435e-01
167           	5.981117e-01	7.539059e-01	-1.557941e-01	3.575925e-01	-2.154169e-01	5.730094e-01	-3.942132e-01	4.548500e-01	3.490564e-03	1.563331e+00	7.851563e-01	7.781751e-01
168           	5.999632e-01	7.549352e-01	-1.549720e-01	3.610845e-01	-2.147296e-01	5.758141e-01	-3.952718e-01	4.549536e-01	2.980914e-03	1.561166e+00	7.835640e-01	7.776022e-01