# Force and moment coefficients
# dragDir     : (1.000000e+00 0.000000e+00 0.000000e+00)
# sideDir     : (0.000000e+00 1.000000e+00 0.000000e+00)
# liftDir     : (0.000000e+00 0.000000e+00 1.000000e+00)
# rollAxis    : (1.000000e+00 0.000000e+00 0.000000e+00)
# pitchAxis   : (0.000000e+00 1.000000e+00 0.000000e+00)
# yawAxis     : (0.000000e+00 0.000000e+00 1.000000e+00)
# magUInf     : 1.750000e+01
# lRef        : 1.854000e+00
# Aref        : 6.650000e-01
# CofR        : (0.000000e+00 0.000000e+00 0.000000e+00)
#
# Time        	Cd            	Cd(f)         	Cd(r)         	Cl            	Cl(f)         	Cl(r)         	CmPitch       	CmRoll        	CmYaw         	Cs            	Cs(f)         	Cs(r)         
1             	-7.727003e-03	-3.729526e-02	2.956826e-02	-1.877227e-02	-1.977620e-02	1.003934e-03	-1.039007e-02	-3.343176e-02	-8.794493e-02	1.727050e-01	-1.592417e-03	1.742975e-01
2             	4.178475e-03	-5.157356e-02	5.575203e-02	-2.628759e-02	-2.558934e-02	-6.982546e-04	-1.244554e-02	-5.366280e-02	-1.563781e-01	2.967733e-01	-7.991475e-03	3.047647e-01
3             	1.617718e-02	-6.359312e-02	7.977030e-02	-3.314720e-02	-3.072165e-02	-2.425551e-03	-1.414805e-02	-7.168171e-02	-2.172019e-01	4.062386e-01	-1.408263e-02	4.203212e-01
4             	2.074455e-02	-7.233250e-02	9.307705e-02	-3.765661e-02	-3.454946e-02	-3.107150e-03	-1.572115e-02	-8.270477e-02	-2.524904e-01	4.714295e-01	-1.677561e-02	4.882052e-01
5             	1.504794e-02	-7.805288e-02	9.310081e-02	-3.925337e-02	-3.691645e-02	-2.336921e-03	-1.728976e-02	-8.557684e-02	-2.581850e-01	4.860696e-01	-1.515026e-02	5.012198e-01
6             	1.220522e-03	-8.126823e-02	8.248875e-02	-3.821028e-02	-3.779786e-02	-4.124234e-04	-1.869272e-02	-8.187849e-02	-2.408483e-01	4.612897e-01	-1.020340e-02	4.714931e-01
7             	-1.579584e-02	-8.250690e-02	6.671106e-02	-3.554349e-02	-3.751196e-02	1.968463e-03	-1.974021e-02	-7.460898e-02	-2.120129e-01	4.162003e-01	-3.912780e-03	4.201130e-01
8             	-3.081624e-02	-8.207400e-02	5.125776e-02	-3.180944e-02	-3.588112e-02	4.071678e-03	-1.997640e-02	-6.666588e-02	-1.832275e-01	3.699940e-01	1.769503e-03	3.682245e-01
9             	-4.000125e-02	-8.032262e-02	4.032138e-02	-2.793414e-02	-3.328734e-02	5.353194e-03	-1.932026e-02	-6.032200e-02	-1.626736e-01	3.362332e-01	5.442969e-03	3.307903e-01
10            	-4.203993e-02	-7.773564e-02	3.569571e-02	-2.458290e-02	-3.020907e-02	5.626170e-03	-1.791762e-02	-5.671568e-02	-1.538468e-01	3.209330e-01	6.619668e-03	3.143133e-01
11            	-3.821655e-02	-7.475838e-02	3.654184e-02	-2.156367e-02	-2.663777e-02	5.074101e-03	-1.585594e-02	-5.565011e-02	-1.557049e-01	3.228125e-01	5.701296e-03	3.171112e-01
12            	-3.079644e-02	-7.182710e-02	4.103065e-02	-1.905613e-02	-2.307519e-02	4.019058e-03	-1.354712e-02	-5.642887e-02	-1.647518e-01	3.363408e-01	3.418588e-03	3.329222e-01
13            	-2.277160e-02	-6.927974e-02	4.650813e-02	-1.659593e-02	-1.947863e-02	2.882697e-03	-1.118066e-02	-5.789393e-02	-1.763943e-01	3.543061e-01	7.587093e-04	3.535474e-01
14            	-1.631706e-02	-6.737622e-02	5.105916e-02	-1.426796e-02	-1.623987e-02	1.971911e-03	-9.105891e-03	-5.921769e-02	-1.868321e-01	3.705604e-01	-1.551887e-03	3.721123e-01
15            	-1.258176e-02	-6.609149e-02	5.350973e-02	-1.181696e-02	-1.326464e-02	1.447686e-03	-7.356164e-03	-5.980061e-02	-1.939043e-01	3.816295e-01	-3.089548e-03	3.847191e-01
16            	-1.163452e-02	-6.531233e-02	5.367781e-02	-9.254717e-03	-1.057274e-02	1.318027e-03	-5.945385e-03	-5.949507e-02	-1.970542e-01	3.865619e-01	-3.773249e-03	3.903351e-01
17            	-1.269902e-02	-6.479775e-02	5.209874e-02	-6.643680e-03	-8.115774e-03	1.472094e-03	-4.793934e-03	-5.844825e-02	-1.969475e-01	3.863044e-01	-3.795269e-03	3.900997e-01
18            	-1.466903e-02	-6.429044e-02	4.962141e-02	-4.046924e-03	-5.800025e-03	1.753101e-03	-3.776563e-03	-5.695592e-02	-1.948661e-01	3.828131e-01	-3.459598e-03	3.862727e-01
19            	-1.650325e-02	-6.364155e-02	4.713829e-02	-1.702554e-03	-3.715962e-03	2.013408e-03	-2.864685e-03	-5.538992e-02	-1.921173e-01	3.780983e-01	-3.068193e-03	3.811665e-01
20            	-1.750996e-02	-6.276325e-02	4.525329e-02	3.239759e-04	-1.831301e-03	2.155277e-03	-1.993289e-03	-5.400827e-02	-1.897212e-01	3.737768e-01	-2.832799e-03	3.766096e-01
21            	-1.742867e-02	-6.166059e-02	4.423192e-02	2.004301e-03	-1.379722e-04	2.142273e-03	-1.140123e-03	-5.294626e-02	-1.882092e-01	3.707149e-01	-2.851728e-03	3.735666e-01
22            	-1.636405e-02	-6.044430e-02	4.408024e-02	3.280933e-03	1.291404e-03	1.989529e-03	-3.490628e-04	-5.226227e-02	-1.877172e-01	3.691883e-01	-3.122998e-03	3.723113e-01
23            	-1.469003e-02	-5.922306e-02	4.453303e-02	4.272650e-03	2.522445e-03	1.750205e-03	3.861202e-04	-5.187804e-02	-1.880463e-01	3.689666e-01	-3.563038e-03	3.725296e-01
24            	-1.287527e-02	-5.812695e-02	4.525168e-02	5.074213e-03	3.583381e-03	1.490833e-03	1.046274e-03	-5.168931e-02	-1.888433e-01	3.695775e-01	-4.054572e-03	3.736321e-01
25            	-1.130193e-02	-5.721776e-02	4.591583e-02	5.812807e-03	4.547019e-03	1.265788e-03	1.640616e-03	-5.156680e-02	-1.897204e-01	3.704406e-01	-4.500131e-03	3.749407e-01
26            	-1.017712e-02	-5.651156e-02	4.633444e-02	6.533948e-03	5.429441e-03	1.104507e-03	2.162467e-03	-5.142300e-02	-1.903740e-01	3.710538e-01	-4.847075e-03	3.759009e-01
27            	-9.529221e-03	-5.597435e-02	4.644512e-02	7.243336e-03	6.231990e-03	1.011345e-03	2.610322e-03	-5.120974e-02	-1.906275e-01	3.710783e-01	-5.088329e-03	3.761666e-01
28            	-9.214540e-03	-5.554068e-02	4.632614e-02	7.886198e-03	6.920510e-03	9.656883e-04	2.977411e-03	-5.093341e-02	-1.904695e-01	3.704125e-01	-5.263298e-03	3.756758e-01
29            	-9.067790e-03	-5.513092e-02	4.606313e-02	8.469113e-03	7.525204e-03	9.439095e-04	3.290647e-03	-5.059702e-02	-1.899572e-01	3.690930e-01	-5.410660e-03	3.745037e-01
30            	-8.944820e-03	-5.468422e-02	4.573940e-02	9.020152e-03	8.094780e-03	9.253713e-04	3.584705e-03	-5.021181e-02	-1.891946e-01	3.672679e-01	-5.560696e-03	3.728285e-01
31            	-8.742615e-03	-5.417458e-02	4.543197e-02	9.520652e-03	8.625311e-03	8.953410e-04	3.864985e-03	-4.980328e-02	-1.882549e-01	3.650400e-01	-5.734872e-03	3.707748e-01
32            	-8.373731e-03	-5.359438e-02	4.522065e-02	9.977942e-03	9.136196e-03	8.417459e-04	4.147225e-03	-4.940752e-02	-1.873343e-01	3.627688e-01	-5.949911e-03	3.687187e-01
33            	-7.827332e-03	-5.296753e-02	4.514020e-02	1.034184e-02	9.579236e-03	7.626006e-04	4.408318e-03	-4.905386e-02	-1.864584e-01	3.605027e-01	-6.207021e-03	3.667097e-01
34            	-7.115523e-03	-5.230765e-02	4.519213e-02	1.064464e-02	9.984809e-03	6.598351e-04	4.662487e-03	-4.874989e-02	-1.857156e-01	3.584283e-01	-6.501504e-03	3.649298e-01
35            	-6.278197e-03	-5.163246e-02	4.535427e-02	1.088982e-02	1.035066e-02	5.391537e-04	4.905754e-03	-4.849337e-02	-1.850888e-01	3.565305e-01	-6.823520e-03	3.633541e-01
36            	-5.338151e-03	-5.096463e-02	4.562648e-02	1.105174e-02	1.064798e-02	4.037633e-04	5.122107e-03	-4.829556e-02	-1.846023e-01	3.548646e-01	-7.169992e-03	3.620346e-01
37            	-4.324287e-03	-5.032072e-02	4.599643e-02	1.110990e-02	1.085190e-02	2.580049e-04	5.296947e-03	-4.815857e-02	-1.842397e-01	3.534086e-01	-7.535414e-03	3.609441e-01
38            	-3.260367e-03	-4.970180e-02	4.644143e-02	1.107400e-02	1.096898e-02	1.050259e-04	5.431976e-03	-4.807162e-02	-1.839818e-01	3.521345e-01	-7.914537e-03	3.600490e-01
39            	-2.158169e-03	-4.910630e-02	4.694813e-02	1.094387e-02	1.099752e-02	-5.364359e-05	5.525581e-03	-4.802721e-02	-1.837917e-01	3.509755e-01	-8.303977e-03	3.592795e-01
40            	-1.042027e-03	-4.852670e-02	4.748467e-02	1.075926e-02	1.097381e-02	-2.145518e-04	5.594180e-03	-4.800569e-02	-1.836423e-01	3.498969e-01	-8.693828e-03	3.585908e-01
41            	6.542166e-05	-4.795789e-02	4.802331e-02	1.056545e-02	1.093953e-02	-3.740849e-04	5.656810e-03	-4.799060e-02	-1.835218e-01	3.488964e-01	-9.073532e-03	3.579700e-01
42            	1.136522e-03	-4.738968e-02	4.852620e-02	1.043443e-02	1.096272e-02	-5.282856e-04	5.745503e-03	-4.795794e-02	-1.834320e-01	3.480035e-01	-9.430261e-03	3.574338e-01
43            	2.140217e-03	-4.681751e-02	4.895773e-02	1.043477e-02	1.110757e-02	-6.728077e-04	5.890190e-03	-4.788762e-02	-1.833775e-01	3.472541e-01	-9.750396e-03	3.570045e-01
44            	3.075605e-03	-4.623532e-02	4.931092e-02	1.058442e-02	1.139196e-02	-8.075405e-04	6.099752e-03	-4.777312e-02	-1.833544e-01	3.466433e-01	-1.003274e-02	3.566760e-01
45            	3.964752e-03	-4.563643e-02	4.960119e-02	1.087849e-02	1.181399e-02	-9.354967e-04	6.374743e-03	-4.761881e-02	-1.833710e-01	3.461734e-01	-1.028424e-02	3.564577e-01
46            	4.827376e-03	-4.502402e-02	4.985139e-02	1.128065e-02	1.233995e-02	-1.059295e-03	6.699622e-03	-4.743770e-02	-1.834256e-01	3.458274e-01	-1.051191e-02	3.563393e-01
47            	5.684435e-03	-4.439843e-02	5.008286e-02	1.176095e-02	1.294296e-02	-1.182009e-03	7.062483e-03	-4.724065e-02	-1.835128e-01	3.455776e-01	-1.072404e-02	3.563017e-01
48            	6.549123e-03	-4.377156e-02	5.032069e-02	1.225910e-02	1.356486e-02	-1.305759e-03	7.435310e-03	-4.704613e-02	-1.836229e-01	3.453881e-01	-1.092883e-02	3.563169e-01
49            	7.440161e-03	-4.315499e-02	5.059515e-02	1.270591e-02	1.413918e-02	-1.433263e-03	7.786221e-03	-4.687507e-02	-1.837362e-01	3.452036e-01	-1.113444e-02	3.563380e-01
50            	8.365039e-03	-4.256139e-02	5.092642e-02	1.304639e-02	1.461198e-02	-1.565592e-03	8.088786e-03	-4.674390e-02	-1.838403e-01	3.449911e-01	-1.134478e-02	3.563359e-01
51            	9.299730e-03	-4.199728e-02	5.129701e-02	1.329206e-02	1.499131e-02	-1.699251e-03	8.345279e-03	-4.664715e-02	-1.839232e-01	3.447411e-01	-1.155261e-02	3.562937e-01
52            	1.022893e-02	-4.146994e-02	5.169887e-02	1.343859e-02	1.527077e-02	-1.832185e-03	8.551478e-03	-4.658440e-02	-1.839718e-01	3.444366e-01	-1.175350e-02	3.561901e-01
53            	1.113944e-02	-4.096929e-02	5.210873e-02	1.352506e-02	1.548754e-02	-1.962484e-03	8.725012e-03	-4.653901e-02	-1.839723e-01	3.440593e-01	-1.194265e-02	3.560019e-01
54            	1.202484e-02	-4.048843e-02	5.251327e-02	1.356641e-02	1.565587e-02	-2.089455e-03	8.872661e-03	-4.650085e-02	-1.839011e-01	3.435639e-01	-1.211912e-02	3.556830e-01
55            	1.288524e-02	-4.001985e-02	5.290509e-02	1.357248e-02	1.578556e-02	-2.213072e-03	8.999315e-03	-4.646247e-02	-1.837385e-01	3.429063e-01	-1.228533e-02	3.551916e-01
56            	1.372131e-02	-3.956438e-02	5.328569e-02	1.353543e-02	1.586900e-02	-2.333565e-03	9.101282e-03	-4.642503e-02	-1.834778e-01	3.420662e-01	-1.244474e-02	3.545110e-01
57            	1.456381e-02	-3.911349e-02	5.367730e-02	1.343508e-02	1.589007e-02	-2.454994e-03	9.172534e-03	-4.639540e-02	-1.831282e-01	3.410385e-01	-1.260898e-02	3.536475e-01
58            	1.542638e-02	-3.866479e-02	5.409116e-02	1.326385e-02	1.584339e-02	-2.579548e-03	9.211471e-03	-4.637798e-02	-1.827043e-01	3.398431e-01	-1.278280e-02	3.526259e-01
59            	1.632405e-02	-3.820974e-02	5.453379e-02	1.303057e-02	1.573968e-02	-2.709111e-03	9.224394e-03	-4.637177e-02	-1.822267e-01	3.385100e-01	-1.297165e-02	3.514817e-01
60            	1.726219e-02	-3.774010e-02	5.500229e-02	1.274921e-02	1.559386e-02	-2.844649e-03	9.219252e-03	-4.637120e-02	-1.817005e-01	3.370459e-01	-1.317754e-02	3.502234e-01
61            	1.825253e-02	-3.724638e-02	5.549890e-02	1.243936e-02	1.542698e-02	-2.987619e-03	9.207301e-03	-4.637264e-02	-1.811485e-01	3.354898e-01	-1.340357e-02	3.488934e-01
62            	1.930448e-02	-3.672329e-02	5.602777e-02	1.211605e-02	1.525551e-02	-3.139458e-03	9.197485e-03	-4.637553e-02	-1.805987e-01	3.338964e-01	-1.365048e-02	3.475469e-01
63            	2.041837e-02	-3.617133e-02	5.658970e-02	1.179573e-02	1.509583e-02	-3.300091e-03	9.197958e-03	-4.638052e-02	-1.800819e-01	3.323289e-01	-1.391741e-02	3.462463e-01
64            	2.157541e-02	-3.559944e-02	5.717485e-02	1.148722e-02	1.495407e-02	-3.466843e-03	9.210454e-03	-4.638715e-02	-1.796071e-01	3.308169e-01	-1.419866e-02	3.450156e-01
65            	2.275468e-02	-3.501890e-02	5.777358e-02	1.119865e-02	1.483523e-02	-3.636587e-03	9.235910e-03	-4.639624e-02	-1.791856e-01	3.293979e-01	-1.448664e-02	3.438845e-01
66            	2.391712e-02	-3.443944e-02	5.835656e-02	1.095176e-02	1.475552e-02	-3.803757e-03	9.279638e-03	-4.639800e-02	-1.787983e-01	3.280623e-01	-1.476714e-02	3.428295e-01
67            	2.502259e-02	-3.387043e-02	5.889302e-02	1.077368e-02	1.473633e-02	-3.962649e-03	9.349488e-03	-4.638173e-02	-1.784293e-01	3.268047e-01	-1.502695e-02	3.418317e-01
68            	2.604604e-02	-3.331581e-02	5.936185e-02	1.068579e-02	1.479559e-02	-4.109800e-03	9.452695e-03	-4.633883e-02	-1.780706e-01	3.256280e-01	-1.525661e-02	3.408846e-01
69            	2.697778e-02	-3.278117e-02	5.975895e-02	1.069110e-02	1.493476e-02	-4.243661e-03	9.589211e-03	-4.627006e-02	-1.777249e-01	3.245450e-01	-1.545238e-02	3.399973e-01
70            	2.782491e-02	-3.226116e-02	6.008606e-02	1.079226e-02	1.515741e-02	-4.365159e-03	9.761287e-03	-4.617361e-02	-1.773880e-01	3.235446e-01	-1.561571e-02	3.391603e-01
71            	2.859949e-02	-3.174929e-02	6.034877e-02	1.098916e-02	1.546511e-02	-4.475957e-03	9.970536e-03	-4.604903e-02	-1.770553e-01	3.226084e-01	-1.575109e-02	3.383595e-01
72            	2.930456e-02	-3.123830e-02	6.054286e-02	1.128977e-02	1.586630e-02	-4.576527e-03	1.022141e-02	-4.589058e-02	-1.767187e-01	3.217142e-01	-1.586162e-02	3.375758e-01
73            	2.996601e-02	-3.072343e-02	6.068944e-02	1.167507e-02	1.634564e-02	-4.670575e-03	1.050811e-02	-4.570644e-02	-1.763970e-01	3.208785e-01	-1.595776e-02	3.368363e-01
74            	3.059856e-02	-3.020079e-02	6.079935e-02	1.212657e-02	1.688663e-02	-4.760055e-03	1.082334e-02	-4.550007e-02	-1.760894e-01	3.200852e-01	-1.604681e-02	3.361320e-01
75            	3.121805e-02	-2.966704e-02	6.088508e-02	1.262404e-02	1.747113e-02	-4.847093e-03	1.115911e-02	-4.527606e-02	-1.757975e-01	3.193232e-01	-1.613587e-02	3.354591e-01
76            	3.184220e-02	-2.911979e-02	6.096200e-02	1.314467e-02	1.807893e-02	-4.934257e-03	1.150659e-02	-4.504089e-02	-1.755191e-01	3.185754e-01	-1.623140e-02	3.348068e-01
77            	3.248303e-02	-2.855859e-02	6.104162e-02	1.367803e-02	1.870145e-02	-5.023421e-03	1.186243e-02	-4.480010e-02	-1.752582e-01	3.178400e-01	-1.633824e-02	3.341782e-01
78            	3.313966e-02	-2.798781e-02	6.112748e-02	1.421371e-02	1.932824e-02	-5.114530e-03	1.222139e-02	-4.455764e-02	-1.750132e-01	3.171089e-01	-1.645876e-02	3.335677e-01
79            	3.382038e-02	-2.740237e-02	6.122276e-02	1.474750e-02	1.995635e-02	-5.208842e-03	1.258259e-02	-4.431256e-02	-1.747697e-01	3.163439e-01	-1.659770e-02	3.329416e-01
80            	3.453133e-02	-2.679795e-02	6.132928e-02	1.526904e-02	2.057637e-02	-5.307333e-03	1.294185e-02	-4.406361e-02	-1.745064e-01	3.154955e-01	-1.675865e-02	3.322541e-01
81            	3.527176e-02	-2.617719e-02	6.144895e-02	1.577129e-02	2.118124e-02	-5.409948e-03	1.329559e-02	-4.381307e-02	-1.742191e-01	3.145528e-01	-1.694272e-02	3.314956e-01
82            	3.603441e-02	-2.554639e-02	6.158081e-02	1.624547e-02	2.176109e-02	-5.515620e-03	1.363835e-02	-4.356360e-02	-1.739038e-01	3.135101e-01	-1.714872e-02	3.306588e-01
83            	3.682385e-02	-2.491176e-02	6.173561e-02	1.667886e-02	2.230389e-02	-5.625032e-03	1.396446e-02	-4.332369e-02	-1.735812e-01	3.124061e-01	-1.737811e-02	3.297842e-01
84            	3.764118e-02	-2.427040e-02	6.191158e-02	1.706629e-02	2.280471e-02	-5.738426e-03	1.427157e-02	-4.309099e-02	-1.732433e-01	3.112214e-01	-1.763260e-02	3.288540e-01
85            	3.849513e-02	-2.362149e-02	6.211662e-02	1.739274e-02	2.324972e-02	-5.856988e-03	1.455336e-02	-4.286906e-02	-1.728947e-01	3.099582e-01	-1.791563e-02	3.278738e-01
86            	3.938320e-02	-2.297365e-02	6.235686e-02	1.763792e-02	2.361844e-02	-5.980515e-03	1.479948e-02	-4.266525e-02	-1.725418e-01	3.086275e-01	-1.822800e-02	3.268555e-01
87            	4.029887e-02	-2.233708e-02	6.263596e-02	1.779063e-02	2.389872e-02	-6.108085e-03	1.500340e-02	-4.248652e-02	-1.721956e-01	3.072588e-01	-1.856618e-02	3.258249e-01
88            	4.123210e-02	-2.172128e-02	6.295337e-02	1.785236e-02	2.409061e-02	-6.238252e-03	1.516443e-02	-4.233732e-02	-1.718681e-01	3.058860e-01	-1.892512e-02	3.248111e-01
89            	4.217661e-02	-2.113159e-02	6.330819e-02	1.782845e-02	2.419867e-02	-6.370216e-03	1.528444e-02	-4.221989e-02	-1.715714e-01	3.045398e-01	-1.930149e-02	3.238413e-01
90            	4.310063e-02	-2.058201e-02	6.368264e-02	1.772755e-02	2.422703e-02	-6.499481e-03	1.536326e-02	-4.213232e-02	-1.713020e-01	3.032353e-01	-1.968438e-02	3.229197e-01
91            	4.397092e-02	-2.009093e-02	6.406185e-02	1.755088e-02	2.417229e-02	-6.621408e-03	1.539685e-02	-4.207639e-02	-1.710622e-01	3.020040e-01	-2.006019e-02	3.220642e-01
92            	4.474885e-02	-1.967880e-02	6.442765e-02	1.729726e-02	2.402773e-02	-6.730472e-03	1.537910e-02	-4.205322e-02	-1.708504e-01	3.008733e-01	-2.041378e-02	3.212871e-01
93            	4.539920e-02	-1.936718e-02	6.476638e-02	1.695616e-02	2.377764e-02	-6.821478e-03	1.529956e-02	-4.206678e-02	-1.706677e-01	2.998751e-01	-2.073014e-02	3.206053e-01
94            	4.588757e-02	-1.917479e-02	6.506236e-02	1.651966e-02	2.340911e-02	-6.889452e-03	1.514928e-02	-4.211857e-02	-1.705018e-01	2.990174e-01	-2.099309e-02	3.200105e-01
95            	4.619501e-02	-1.911957e-02	6.531458e-02	1.596404e-02	2.289571e-02	-6.931665e-03	1.491369e-02	-4.221708e-02	-1.703463e-01	2.983101e-01	-2.119128e-02	3.195014e-01
96            	4.630275e-02	-1.921162e-02	6.551438e-02	1.528162e-02	2.222715e-02	-6.945521e-03	1.458633e-02	-4.236300e-02	-1.701785e-01	2.977320e-01	-2.131247e-02	3.190445e-01
97            	4.621043e-02	-1.945275e-02	6.566317e-02	1.447162e-02	2.140253e-02	-6.930913e-03	1.416672e-02	-4.255796e-02	-1.699912e-01	2.972788e-01	-2.135178e-02	3.186306e-01
98            	4.593330e-02	-1.983005e-02	6.576334e-02	1.355370e-02	2.044378e-02	-6.890080e-03	1.366693e-02	-4.279670e-02	-1.697823e-01	2.969411e-01	-2.131176e-02	3.182529e-01
99            	4.547135e-02	-2.033569e-02	6.580705e-02	1.254943e-02	1.937238e-02	-6.822952e-03	1.309767e-02	-4.307137e-02	-1.695369e-01	2.966922e-01	-2.119082e-02	3.178830e-01
100           	4.483991e-02	-2.095512e-02	6.579502e-02	1.148219e-02	1.821405e-02	-6.731862e-03	1.247296e-02	-4.337507e-02	-1.692492e-01	2.965135e-01	-2.099242e-02	3.175059e-01
101           	4.406702e-02	-2.166713e-02	6.573415e-02	1.036893e-02	1.698973e-02	-6.620803e-03	1.180527e-02	-4.370064e-02	-1.689211e-01	2.963874e-01	-2.072738e-02	3.171148e-01
102           	4.317842e-02	-2.244498e-02	6.562340e-02	9.238752e-03	1.573212e-02	-6.493372e-03	1.111275e-02	-4.403419e-02	-1.685490e-01	2.962822e-01	-2.040792e-02	3.166902e-01
103           	4.219702e-02	-2.326648e-02	6.546350e-02	8.112601e-03	1.446533e-02	-6.352731e-03	1.040903e-02	-4.436499e-02	-1.681366e-01	2.961772e-01	-2.004799e-02	3.162252e-01
104           	4.113460e-02	-2.411278e-02	6.524738e-02	7.020809e-03	1.322141e-02	-6.200596e-03	9.711001e-03	-4.468008e-02	-1.676854e-01	2.960591e-01	-1.965587e-02	3.157149e-01
105           	4.000465e-02	-2.496326e-02	6.496791e-02	5.990392e-03	1.202919e-02	-6.038794e-03	9.033990e-03	-4.496559e-02	-1.671944e-01	2.959064e-01	-1.924118e-02	3.151475e-01
106           	3.880589e-02	-2.580419e-02	6.461008e-02	5.052967e-03	1.092018e-02	-5.867217e-03	8.393701e-03	-4.520714e-02	-1.666551e-01	2.956993e-01	-1.880547e-02	3.145048e-01
107           	3.751215e-02	-2.662882e-02	6.414097e-02	4.252416e-03	9.934423e-03	-5.682007e-03	7.808215e-03	-4.538490e-02	-1.660523e-01	2.954210e-01	-1.834181e-02	3.137628e-01
108           	3.611774e-02	-2.743274e-02	6.355048e-02	3.615057e-03	9.097437e-03	-5.482380e-03	7.289908e-03	-4.549161e-02	-1.653880e-01	2.950767e-01	-1.784966e-02	3.129264e-01
109           	3.461263e-02	-2.821094e-02	6.282357e-02	3.176193e-03	8.443200e-03	-5.267007e-03	6.855104e-03	-4.551725e-02	-1.646647e-01	2.946789e-01	-1.732528e-02	3.120042e-01
110           	3.301281e-02	-2.896262e-02	6.197543e-02	2.934715e-03	7.972852e-03	-5.038137e-03	6.505494e-03	-4.546902e-02	-1.639080e-01	2.942660e-01	-1.677504e-02	3.110410e-01
111           	3.133644e-02	-2.968349e-02	6.101993e-02	2.881389e-03	7.679675e-03	-4.798287e-03	6.238981e-03	-4.535171e-02	-1.631290e-01	2.938481e-01	-1.620498e-02	3.100531e-01
112           	2.961179e-02	-3.036909e-02	5.998089e-02	2.990994e-03	7.542551e-03	-4.551558e-03	6.047054e-03	-4.517499e-02	-1.623413e-01	2.934374e-01	-1.562262e-02	3.090600e-01
113           	2.786135e-02	-3.102088e-02	5.888222e-02	3.232560e-03	7.533799e-03	-4.301239e-03	5.917519e-03	-4.495155e-02	-1.615639e-01	2.930592e-01	-1.503429e-02	3.080934e-01
114           	2.612159e-02	-3.163965e-02	5.776125e-02	3.561393e-03	7.613639e-03	-4.052246e-03	5.832942e-03	-4.470045e-02	-1.608225e-01	2.927457e-01	-1.444964e-02	3.071953e-01
115           	2.441919e-02	-3.222736e-02	5.664655e-02	3.940042e-03	7.748269e-03	-3.808227e-03	5.778248e-03	-4.443695e-02	-1.601346e-01	2.925186e-01	-1.387532e-02	3.063939e-01
116           	2.277916e-02	-3.278468e-02	5.556384e-02	4.343922e-03	7.916666e-03	-3.572744e-03	5.744705e-03	-4.417426e-02	-1.595219e-01	2.924100e-01	-1.331688e-02	3.057268e-01
117           	2.121143e-02	-3.330843e-02	5.451987e-02	4.764854e-03	8.112061e-03	-3.347208e-03	5.729634e-03	-4.391415e-02	-1.589817e-01	2.924102e-01	-1.277662e-02	3.051868e-01
118           	1.972675e-02	-3.379117e-02	5.351792e-02	5.210503e-03	8.343658e-03	-3.133154e-03	5.738406e-03	-4.365455e-02	-1.585163e-01	2.925178e-01	-1.225745e-02	3.047752e-01
119           	1.834361e-02	-3.423174e-02	5.257535e-02	5.659385e-03	8.592592e-03	-2.933207e-03	5.762899e-03	-4.340355e-02	-1.581349e-01	2.927402e-01	-1.176480e-02	3.045050e-01
120           	1.709473e-02	-3.461929e-02	5.171402e-02	6.104144e-03	8.856204e-03	-2.752060e-03	5.804132e-03	-4.316666e-02	-1.578509e-01	2.930862e-01	-1.130778e-02	3.043940e-01
121           	1.600705e-02	-3.494470e-02	5.095175e-02	6.541463e-03	9.135030e-03	-2.593567e-03	5.864299e-03	-4.294822e-02	-1.576766e-01	2.935628e-01	-1.089519e-02	3.044580e-01
122           	1.511870e-02	-3.519954e-02	5.031824e-02	6.955416e-03	9.418678e-03	-2.463261e-03	5.940969e-03	-4.275889e-02	-1.576271e-01	2.941772e-01	-1.053849e-02	3.047157e-01
123           	1.444137e-02	-3.538382e-02	4.982518e-02	7.347939e-03	9.710824e-03	-2.362885e-03	6.036854e-03	-4.260450e-02	-1.577181e-01	2.949480e-01	-1.024408e-02	3.051921e-01
124           	1.400413e-02	-3.548404e-02	4.948817e-02	7.717140e-03	1.001380e-02	-2.296657e-03	6.155227e-03	-4.248611e-02	-1.579422e-01	2.958398e-01	-1.002231e-02	3.058621e-01
125           	1.381986e-02	-3.549451e-02	4.931437e-02	8.060691e-03	1.032734e-02	-2.266651e-03	6.296997e-03	-4.240444e-02	-1.582905e-01	2.968178e-01	-9.881594e-03	3.066994e-01
126           	1.389626e-02	-3.541212e-02	4.930837e-02	8.363132e-03	1.063716e-02	-2.274033e-03	6.455599e-03	-4.236025e-02	-1.587338e-01	2.978068e-01	-9.830442e-03	3.076372e-01
127           	1.423733e-02	-3.524222e-02	4.947954e-02	8.597873e-03	1.091725e-02	-2.319374e-03	6.618311e-03	-4.236088e-02	-1.592518e-01	2.987583e-01	-9.872664e-03	3.086310e-01
128           	1.484965e-02	-3.498462e-02	4.983427e-02	8.735335e-03	1.113895e-02	-2.403614e-03	6.771282e-03	-4.240944e-02	-1.598177e-01	2.996057e-01	-1.001490e-02	3.096206e-01
129           	1.573401e-02	-3.464665e-02	5.038065e-02	8.736897e-03	1.126382e-02	-2.526920e-03	6.895368e-03	-4.251365e-02	-1.604137e-01	3.003052e-01	-1.026106e-02	3.105663e-01
130           	1.688840e-02	-3.422604e-02	5.111444e-02	8.572753e-03	1.126186e-02	-2.689102e-03	6.975478e-03	-4.267024e-02	-1.610020e-01	3.007807e-01	-1.061168e-02	3.113924e-01
131           	1.829236e-02	-3.373155e-02	5.202391e-02	8.217330e-03	1.110469e-02	-2.887358e-03	6.996023e-03	-4.287773e-02	-1.615583e-01	3.009954e-01	-1.106067e-02	3.120560e-01
132           	1.991364e-02	-3.317227e-02	5.308592e-02	7.669965e-03	1.078707e-02	-3.117107e-03	6.952089e-03	-4.312910e-02	-1.620658e-01	3.009408e-01	-1.159539e-02	3.125361e-01
133           	2.170287e-02	-3.256355e-02	5.426641e-02	6.949515e-03	1.032102e-02	-3.371510e-03	6.846267e-03	-4.341498e-02	-1.625141e-01	3.006368e-01	-1.219573e-02	3.128325e-01
134           	2.358516e-02	-3.192007e-02	5.550523e-02	6.103206e-03	9.743003e-03	-3.639797e-03	6.691400e-03	-4.371265e-02	-1.628727e-01	3.000778e-01	-1.283381e-02	3.129116e-01
135           	2.547243e-02	-3.127622e-02	5.674864e-02	5.174193e-03	9.083713e-03	-3.909520e-03	6.496616e-03	-4.401243e-02	-1.631203e-01	2.992802e-01	-1.348014e-02	3.127604e-01
136           	2.728208e-02	-3.066149e-02	5.794356e-02	4.212489e-03	8.381396e-03	-4.168906e-03	6.275151e-03	-4.430253e-02	-1.632440e-01	2.982782e-01	-1.410485e-02	3.123831e-01
137           	2.893412e-02	-3.011169e-02	5.904581e-02	3.263214e-03	7.669663e-03	-4.406448e-03	6.038056e-03	-4.457875e-02	-1.632541e-01	2.971455e-01	-1.468138e-02	3.118269e-01
138           	3.035873e-02	-2.964316e-02	6.000189e-02	2.377677e-03	6.989508e-03	-4.611831e-03	5.800670e-03	-4.482252e-02	-1.631466e-01	2.959220e-01	-1.518559e-02	3.111076e-01
139           	3.150797e-02	-2.927767e-02	6.078564e-02	1.562670e-03	6.340674e-03	-4.778004e-03	5.559339e-03	-4.503166e-02	-1.629335e-01	2.946642e-01	-1.560139e-02	3.102656e-01
140           	3.236273e-02	-2.901977e-02	6.138250e-02	8.264871e-04	5.728699e-03	-4.902212e-03	5.315455e-03	-4.520113e-02	-1.626356e-01	2.934275e-01	-1.592185e-02	3.093494e-01
141           	3.291940e-02	-2.886849e-02	6.178789e-02	1.616957e-04	5.145627e-03	-4.983932e-03	5.064779e-03	-4.532819e-02	-1.622641e-01	2.922355e-01	-1.614634e-02	3.083818e-01
142           	3.319082e-02	-2.881072e-02	6.200153e-02	-4.064895e-04	4.618600e-03	-5.025089e-03	4.821844e-03	-4.540612e-02	-1.618394e-01	2.911175e-01	-1.628067e-02	3.073981e-01
143           	3.321506e-02	-2.881694e-02	6.203200e-02	-8.524927e-04	4.178735e-03	-5.031228e-03	4.604982e-03	-4.542447e-02	-1.613636e-01	2.900458e-01	-1.634066e-02	3.063865e-01
144           	3.300010e-02	-2.887779e-02	6.187789e-02	-1.148145e-03	3.855322e-03	-5.003466e-03	4.429394e-03	-4.537784e-02	-1.608429e-01	2.890166e-01	-1.633458e-02	3.053512e-01
145           	3.254662e-02	-2.899317e-02	6.153979e-02	-1.298266e-03	3.643667e-03	-4.941934e-03	4.292801e-03	-4.526648e-02	-1.602561e-01	2.879848e-01	-1.626373e-02	3.042485e-01
146           	3.189066e-02	-2.915125e-02	6.104191e-02	-1.303577e-03	3.548148e-03	-4.851725e-03	4.199936e-03	-4.509658e-02	-1.596093e-01	2.869508e-01	-1.613388e-02	3.030847e-01
147           	3.108606e-02	-2.934082e-02	6.042688e-02	-1.180922e-03	3.559358e-03	-4.740280e-03	4.149819e-03	-4.488385e-02	-1.589173e-01	2.859294e-01	-1.595258e-02	3.018820e-01
148           	3.019747e-02	-2.954687e-02	5.974434e-02	-9.439839e-04	3.672514e-03	-4.616498e-03	4.144506e-03	-4.464560e-02	-1.582094e-01	2.849548e-01	-1.573206e-02	3.006868e-01
149           	2.928724e-02	-2.973743e-02	5.902467e-02	-5.630695e-04	3.926122e-03	-4.489192e-03	4.207657e-03	-4.438105e-02	-1.575150e-01	2.840548e-01	-1.548761e-02	2.995424e-01
150           	2.839025e-02	-2.989688e-02	5.828712e-02	-2.737770e-05	4.335919e-03	-4.363297e-03	4.349608e-03	-4.409200e-02	-1.568628e-01	2.832637e-01	-1.523094e-02	2.984946e-01
151           	2.749832e-02	-3.002549e-02	5.752382e-02	6.669256e-04	4.904618e-03	-4.237692e-03	4.571155e-03	-4.377465e-02	-1.562533e-01	2.825796e-01	-1.496345e-02	2.975430e-01
152           	2.662870e-02	-3.012870e-02	5.675740e-02	1.474817e-03	5.589786e-03	-4.114969e-03	4.852378e-03	-4.344305e-02	-1.556977e-01	2.820120e-01	-1.469165e-02	2.967037e-01
153           	2.582028e-02	-3.019758e-02	5.601786e-02	2.363021e-03	6.363827e-03	-4.000806e-03	5.182317e-03	-4.310772e-02	-1.552153e-01	2.815780e-01	-1.442634e-02	2.960043e-01
154           	2.510989e-02	-3.022651e-02	5.533639e-02	3.295949e-03	7.196563e-03	-3.900614e-03	5.548588e-03	-4.278145e-02	-1.548277e-01	2.813015e-01	-1.417695e-02	2.954784e-01
155           	2.452836e-02	-3.020908e-02	5.473743e-02	4.243845e-03	8.062487e-03	-3.818643e-03	5.940565e-03	-4.247326e-02	-1.545477e-01	2.811891e-01	-1.395312e-02	2.951422e-01
156           	2.410814e-02	-3.013797e-02	5.424611e-02	5.178546e-03	8.937891e-03	-3.759345e-03	6.348618e-03	-4.219204e-02	-1.543909e-01	2.812476e-01	-1.376714e-02	2.950147e-01
157           	2.386617e-02	-3.000269e-02	5.386886e-02	6.089345e-03	9.814558e-03	-3.725213e-03	6.769886e-03	-4.193577e-02	-1.543481e-01	2.814421e-01	-1.362705e-02	2.950692e-01
158           	2.382312e-02	-2.979310e-02	5.361621e-02	6.964150e-03	1.068321e-02	-3.719063e-03	7.201138e-03	-4.170466e-02	-1.544131e-01	2.817407e-01	-1.354271e-02	2.952835e-01
159           	2.397845e-02	-2.950997e-02	5.348842e-02	7.796576e-03	1.153719e-02	-3.740611e-03	7.638898e-03	-4.149920e-02	-1.545757e-01	2.821187e-01	-1.351636e-02	2.956351e-01
160           	2.433043e-02	-2.914550e-02	5.347593e-02	8.589613e-03	1.237912e-02	-3.789505e-03	8.084312e-03	-4.131071e-02	-1.548040e-01	2.825091e-01	-1.354941e-02	2.960585e-01
161           	2.485607e-02	-2.871779e-02	5.357386e-02	9.331078e-03	1.319372e-02	-3.862640e-03	8.528179e-03	-4.114582e-02	-1.550958e-01	2.829169e-01	-1.363735e-02	2.965543e-01
162           	2.550435e-02	-2.824113e-02	5.374548e-02	1.003192e-02	1.398469e-02	-3.952771e-03	8.968731e-03	-4.099331e-02	-1.554083e-01	2.832856e-01	-1.376553e-02	2.970511e-01
163           	2.625505e-02	-2.772986e-02	5.398491e-02	1.068543e-02	1.474254e-02	-4.057102e-03	9.399819e-03	-4.085738e-02	-1.557457e-01	2.836352e-01	-1.392807e-02	2.975633e-01
164           	2.707642e-02	-2.719625e-02	5.427267e-02	1.128951e-02	1.546072e-02	-4.171206e-03	9.815962e-03	-4.073446e-02	-1.560942e-01	2.839548e-01	-1.411678e-02	2.980716e-01
165           	2.793836e-02	-2.664947e-02	5.458784e-02	1.183891e-02	1.612965e-02	-4.290739e-03	1.021019e-02	-4.061866e-02	-1.564318e-01	2.842157e-01	-1.432399e-02	2.985397e-01
166           	2.882262e-02	-2.610099e-02	5.492361e-02	1.231152e-02	1.672483e-02	-4.413306e-03	1.056907e-02	-4.051230e-02	-1.567461e-01	2.844000e-01	-1.454617e-02	2.989461e-01