# Force and moment coefficients
# dragDir     : (1.000000e+00 0.000000e+00 0.000000e+00)
# sideDir     : (0.000000e+00 1.000000e+00 0.000000e+00)
# liftDir     : (0.000000e+00 0.000000e+00 1.000000e+00)
# rollAxis    : (1.000000e+00 0.000000e+00 0.000000e+00)
# pitchAxis   : (0.000000e+00 1.000000e+00 0.000000e+00)
# yawAxis     : (0.000000e+00 0.000000e+00 1.000000e+00)
# magUInf     : 1.750000e+01
# lRef        : 1.854000e+00
# Aref        : 6.650000e-01
# CofR        : (0.000000e+00 0.000000e+00 0.000000e+00)
#
# Time        	Cd            	Cd(f)         	Cd(r)         	Cl            	Cl(f)         	Cl(r)         	CmPitch       	CmRoll        	CmYaw         	Cs            	Cs(f)         	Cs(r)         
1             	3.688163e-02	1.667958e-02	2.020204e-02	2.475038e-02	2.048292e-02	4.267467e-03	8.107725e-03	-1.761230e-03	-1.043523e-03	4.554011e-03	1.233482e-03	3.320529e-03
2             	6.316886e-02	2.635961e-02	3.680926e-02	3.159885e-02	3.640636e-02	-4.807512e-03	2.060694e-02	-5.224824e-03	1.844193e-04	1.084889e-02	5.608863e-03	5.240025e-03
3             	8.309583e-02	3.331539e-02	4.978044e-02	3.611796e-02	4.860066e-02	-1.248270e-02	3.054168e-02	-8.232528e-03	1.368889e-03	1.618169e-02	9.459736e-03	6.721959e-03
4             	9.330218e-02	3.667245e-02	5.662974e-02	3.958757e-02	5.481547e-02	-1.522790e-02	3.502169e-02	-9.978645e-03	2.280712e-03	1.948468e-02	1.202305e-02	7.461629e-03
5             	9.239388e-02	3.576115e-02	5.663273e-02	4.099490e-02	5.421748e-02	-1.322258e-02	3.372003e-02	-1.043579e-02	2.886509e-03	2.054178e-02	1.315740e-02	7.384382e-03
6             	8.327349e-02	3.169371e-02	5.157978e-02	3.977779e-02	4.865445e-02	-8.876664e-03	2.876556e-02	-9.943032e-03	3.143057e-03	1.975112e-02	1.301862e-02	6.732501e-03
7             	7.073060e-02	2.642038e-02	4.431021e-02	3.644326e-02	4.106918e-02	-4.625925e-03	2.284756e-02	-8.944915e-03	3.076612e-03	1.786631e-02	1.200977e-02	5.856545e-03
8             	5.871374e-02	2.150035e-02	3.721339e-02	3.259214e-02	3.384397e-02	-1.251837e-03	1.754791e-02	-7.856519e-03	2.831592e-03	1.573978e-02	1.070148e-02	5.038300e-03
9             	4.926898e-02	1.764534e-02	3.162364e-02	2.897415e-02	2.823551e-02	7.386420e-04	1.374843e-02	-6.989147e-03	2.572374e-03	1.398307e-02	9.563907e-03	4.419159e-03
10            	4.312593e-02	1.514868e-02	2.797725e-02	2.671285e-02	2.464187e-02	2.070978e-03	1.128545e-02	-6.414285e-03	2.416805e-03	1.289379e-02	8.863700e-03	4.030089e-03
11            	4.001667e-02	1.394226e-02	2.607442e-02	2.567830e-02	2.290449e-02	2.773805e-03	1.006534e-02	-6.066081e-03	2.351670e-03	1.239151e-02	8.547427e-03	3.844087e-03
12            	3.907737e-02	1.367101e-02	2.540636e-02	2.562362e-02	2.247934e-02	3.144282e-03	9.667529e-03	-5.867676e-03	2.346581e-03	1.228680e-02	8.489980e-03	3.796818e-03
13            	3.937953e-02	1.398948e-02	2.539005e-02	2.634781e-02	2.276819e-02	3.579622e-03	9.594282e-03	-5.700281e-03	2.336209e-03	1.232252e-02	8.497466e-03	3.825049e-03
14            	4.012195e-02	1.457749e-02	2.554445e-02	2.746435e-02	2.327434e-02	4.190016e-03	9.542161e-03	-5.483481e-03	2.270217e-03	1.229207e-02	8.416253e-03	3.875820e-03
15            	4.066180e-02	1.515477e-02	2.550702e-02	2.863193e-02	2.360868e-02	5.023254e-03	9.292712e-03	-5.176124e-03	2.132572e-03	1.207876e-02	8.171950e-03	3.906805e-03
16            	4.075999e-02	1.560071e-02	2.515928e-02	2.960983e-02	2.363809e-02	5.971737e-03	8.833176e-03	-4.779284e-03	1.931653e-03	1.166158e-02	7.762443e-03	3.899138e-03
17            	4.041171e-02	1.589439e-02	2.451732e-02	3.030756e-02	2.337526e-02	6.932298e-03	8.221480e-03	-4.311462e-03	1.693853e-03	1.108345e-02	7.235579e-03	3.847873e-03
18            	3.971514e-02	1.605640e-02	2.365874e-02	3.093134e-02	2.288043e-02	8.050908e-03	7.414760e-03	-3.801172e-03	1.459761e-03	1.043416e-02	6.676842e-03	3.757320e-03
19            	3.890616e-02	1.616334e-02	2.274283e-02	3.163631e-02	2.230166e-02	9.334643e-03	6.483511e-03	-3.289743e-03	1.258372e-03	9.804856e-03	6.160800e-03	3.644056e-03
20            	3.817851e-02	1.626830e-02	2.191021e-02	3.256923e-02	2.175909e-02	1.081013e-02	5.474480e-03	-2.820957e-03	1.112198e-03	9.276892e-03	5.750644e-03	3.526248e-03
21            	3.761442e-02	1.638200e-02	2.123242e-02	3.379622e-02	2.130552e-02	1.249069e-02	4.407413e-03	-2.425211e-03	1.034135e-03	8.897503e-03	5.482887e-03	3.414616e-03
22            	3.719852e-02	1.648609e-02	2.071243e-02	3.528072e-02	2.093558e-02	1.434514e-02	3.295217e-03	-2.113171e-03	1.022600e-03	8.669197e-03	5.357199e-03	3.311999e-03
23            	3.687716e-02	1.655334e-02	2.032382e-02	3.687438e-02	2.062523e-02	1.624915e-02	2.188038e-03	-1.885242e-03	1.061775e-03	8.562974e-03	5.343262e-03	3.219712e-03
24            	3.659963e-02	1.655830e-02	2.004134e-02	3.838120e-02	2.035358e-02	1.802762e-02	1.162982e-03	-1.741521e-03	1.134205e-03	8.546626e-03	5.407518e-03	3.139108e-03
25            	3.630128e-02	1.648755e-02	1.981373e-02	3.969177e-02	2.008536e-02	1.960641e-02	2.394732e-04	-1.663089e-03	1.219932e-03	8.576644e-03	5.508254e-03	3.068390e-03
26            	3.595127e-02	1.634636e-02	1.960491e-02	4.075921e-02	1.980248e-02	2.095673e-02	-5.771271e-04	-1.629278e-03	1.301497e-03	8.615802e-03	5.609398e-03	3.006404e-03
27            	3.554604e-02	1.615001e-02	1.939604e-02	4.156345e-02	1.950336e-02	2.206009e-02	-1.278364e-03	-1.623015e-03	1.368459e-03	8.641631e-03	5.689274e-03	2.952357e-03
28            	3.510991e-02	1.593142e-02	1.917849e-02	4.212865e-02	1.920123e-02	2.292742e-02	-1.863097e-03	-1.623534e-03	1.414850e-03	8.636875e-03	5.733287e-03	2.903588e-03
29            	3.467824e-02	1.571783e-02	1.896041e-02	4.248359e-02	1.891630e-02	2.356729e-02	-2.325496e-03	-1.621290e-03	1.440308e-03	8.599930e-03	5.740273e-03	2.859657e-03
30            	3.427845e-02	1.552590e-02	1.875255e-02	4.267906e-02	1.866262e-02	2.401645e-02	-2.676915e-03	-1.613327e-03	1.448481e-03	8.538103e-03	5.717533e-03	2.820570e-03
31            	3.390631e-02	1.536188e-02	1.854443e-02	4.278765e-02	1.843279e-02	2.435486e-02	-2.961032e-03	-1.591272e-03	1.444302e-03	8.453297e-03	5.670950e-03	2.782346e-03
32            	3.357628e-02	1.523081e-02	1.834546e-02	4.286182e-02	1.823241e-02	2.462941e-02	-3.198503e-03	-1.557325e-03	1.432556e-03	8.356064e-03	5.610588e-03	2.745476e-03
33            	3.325532e-02	1.511691e-02	1.813840e-02	4.297130e-02	1.803612e-02	2.493517e-02	-3.449525e-03	-1.510744e-03	1.419683e-03	8.253445e-03	5.546406e-03	2.707040e-03
34            	3.291322e-02	1.500459e-02	1.790863e-02	4.316111e-02	1.782191e-02	2.533920e-02	-3.758648e-03	-1.452020e-03	1.410169e-03	8.151001e-03	5.485669e-03	2.665332e-03
35            	3.254024e-02	1.488177e-02	1.765847e-02	4.343055e-02	1.758340e-02	2.584715e-02	-4.131870e-03	-1.388348e-03	1.407301e-03	8.056611e-03	5.435606e-03	2.621005e-03
36            	3.213840e-02	1.474432e-02	1.739408e-02	4.375118e-02	1.732328e-02	2.642791e-02	-4.552314e-03	-1.324878e-03	1.410561e-03	7.971975e-03	5.396548e-03	2.575426e-03
37            	3.170852e-02	1.458929e-02	1.711923e-02	4.410125e-02	1.704324e-02	2.705801e-02	-5.007384e-03	-1.264965e-03	1.418765e-03	7.896841e-03	5.367185e-03	2.529655e-03
38            	3.125077e-02	1.441686e-02	1.683391e-02	4.446337e-02	1.674447e-02	2.771890e-02	-5.487213e-03	-1.208527e-03	1.430252e-03	7.828465e-03	5.344484e-03	2.483981e-03
39            	3.077336e-02	1.423387e-02	1.653949e-02	4.481960e-02	1.643335e-02	2.838626e-02	-5.976454e-03	-1.152809e-03	1.441605e-03	7.761047e-03	5.322129e-03	2.438918e-03
40            	3.029154e-02	1.404950e-02	1.624204e-02	4.514502e-02	1.612107e-02	2.902395e-02	-6.451436e-03	-1.096267e-03	1.450317e-03	7.690830e-03	5.295732e-03	2.395099e-03
41            	2.981227e-02	1.386983e-02	1.594245e-02	4.542810e-02	1.581284e-02	2.961526e-02	-6.901211e-03	-1.036311e-03	1.454271e-03	7.613712e-03	5.261127e-03	2.352585e-03
42            	2.934695e-02	1.370147e-02	1.564548e-02	4.564366e-02	1.551735e-02	3.012631e-02	-7.304479e-03	-9.720040e-04	1.451221e-03	7.526281e-03	5.214362e-03	2.311920e-03
43            	2.889768e-02	1.354720e-02	1.535048e-02	4.580091e-02	1.523539e-02	3.056552e-02	-7.665061e-03	-9.016421e-04	1.440817e-03	7.427463e-03	5.154548e-03	2.272915e-03
44            	2.846289e-02	1.340622e-02	1.505666e-02	4.591169e-02	1.496500e-02	3.094669e-02	-7.990847e-03	-8.252185e-04	1.423715e-03	7.318210e-03	5.082820e-03	2.235390e-03
45            	2.804096e-02	1.327688e-02	1.476408e-02	4.598585e-02	1.470472e-02	3.128113e-02	-8.288203e-03	-7.436011e-04	1.400874e-03	7.200541e-03	5.001144e-03	2.199397e-03
46            	2.762642e-02	1.315385e-02	1.447256e-02	4.602933e-02	1.445085e-02	3.157848e-02	-8.563817e-03	-6.593543e-04	1.374362e-03	7.078322e-03	4.913523e-03	2.164799e-03
47            	2.722735e-02	1.303774e-02	1.418961e-02	4.603845e-02	1.420884e-02	3.182961e-02	-8.810386e-03	-5.759375e-04	1.344712e-03	6.954887e-03	4.822156e-03	2.132731e-03
48            	2.684404e-02	1.292690e-02	1.391713e-02	4.600848e-02	1.397923e-02	3.202925e-02	-9.025012e-03	-4.951136e-04	1.312682e-03	6.831992e-03	4.728677e-03	2.103314e-03
49            	2.646925e-02	1.281759e-02	1.365166e-02	4.595440e-02	1.375688e-02	3.219753e-02	-9.220323e-03	-4.170356e-04	1.279719e-03	6.711224e-03	4.635331e-03	2.075893e-03
50            	2.610268e-02	1.270879e-02	1.339388e-02	4.587508e-02	1.354186e-02	3.233323e-02	-9.395685e-03	-3.425449e-04	1.246800e-03	6.594066e-03	4.543833e-03	2.050234e-03
51            	2.575143e-02	1.260290e-02	1.314854e-02	4.576223e-02	1.333895e-02	3.242328e-02	-9.542168e-03	-2.728191e-04	1.214368e-03	6.481813e-03	4.455274e-03	2.026539e-03
52            	2.542038e-02	1.250007e-02	1.292031e-02	4.560823e-02	1.315130e-02	3.245693e-02	-9.652818e-03	-2.101154e-04	1.183593e-03	6.376978e-03	4.372082e-03	2.004896e-03
53            	2.510963e-02	1.240089e-02	1.270875e-02	4.540965e-02	1.297928e-02	3.243036e-02	-9.725540e-03	-1.539291e-04	1.153798e-03	6.278269e-03	4.292933e-03	1.985336e-03
54            	2.481416e-02	1.230350e-02	1.251067e-02	4.518153e-02	1.281876e-02	3.236277e-02	-9.772003e-03	-1.035871e-04	1.125775e-03	6.186308e-03	4.218929e-03	1.967379e-03
55            	2.453223e-02	1.220693e-02	1.232530e-02	4.493258e-02	1.266812e-02	3.226446e-02	-9.798170e-03	-5.918555e-05	1.099955e-03	6.102039e-03	4.150974e-03	1.951065e-03
56            	2.426607e-02	1.211323e-02	1.215284e-02	4.466989e-02	1.252799e-02	3.214190e-02	-9.806956e-03	-1.980311e-05	1.075858e-03	6.024509e-03	4.088113e-03	1.936396e-03
57            	2.401605e-02	1.202303e-02	1.199301e-02	4.438866e-02	1.239879e-02	3.198987e-02	-9.795538e-03	1.501034e-05	1.052825e-03	5.952554e-03	4.029102e-03	1.923452e-03
58            	2.377870e-02	1.193580e-02	1.184290e-02	4.410142e-02	1.227746e-02	3.182396e-02	-9.773252e-03	4.645129e-05	1.030793e-03	5.885545e-03	3.973565e-03	1.911980e-03
59            	2.355518e-02	1.185253e-02	1.170266e-02	4.381212e-02	1.216439e-02	3.164773e-02	-9.741672e-03	7.493518e-05	1.009745e-03	5.823417e-03	3.921454e-03	1.901964e-03
60            	2.334204e-02	1.177240e-02	1.156964e-02	4.353356e-02	1.205674e-02	3.147682e-02	-9.710039e-03	1.013829e-04	9.898413e-04	5.765969e-03	3.872826e-03	1.893143e-03
61            	2.313851e-02	1.169537e-02	1.144313e-02	4.326419e-02	1.195411e-02	3.131008e-02	-9.677988e-03	1.261211e-04	9.707404e-04	5.712327e-03	3.826904e-03	1.885423e-03
62            	2.294063e-02	1.162032e-02	1.132030e-02	4.301164e-02	1.185372e-02	3.115792e-02	-9.652103e-03	1.500086e-04	9.527758e-04	5.662187e-03	3.783869e-03	1.878318e-03
63            	2.274923e-02	1.154767e-02	1.120155e-02	4.277552e-02	1.175608e-02	3.101944e-02	-9.631677e-03	1.730616e-04	9.356233e-04	5.615130e-03	3.743188e-03	1.871942e-03
64            	2.256349e-02	1.147704e-02	1.108645e-02	4.255839e-02	1.166055e-02	3.089784e-02	-9.618649e-03	1.952973e-04	9.192923e-04	5.571011e-03	3.704798e-03	1.866213e-03
65            	2.238608e-02	1.140930e-02	1.097678e-02	4.234642e-02	1.156948e-02	3.077694e-02	-9.603731e-03	2.162567e-04	9.030268e-04	5.528687e-03	3.667370e-03	1.861317e-03
66            	2.221932e-02	1.134474e-02	1.087458e-02	4.212919e-02	1.148510e-02	3.064408e-02	-9.579490e-03	2.350782e-04	8.868195e-04	5.488439e-03	3.631039e-03	1.857400e-03
67            	2.206672e-02	1.128369e-02	1.078303e-02	4.188772e-02	1.141081e-02	3.047691e-02	-9.533052e-03	2.503305e-04	8.702528e-04	5.450183e-03	3.595344e-03	1.854839e-03
68            	2.193170e-02	1.122832e-02	1.070338e-02	4.162504e-02	1.134857e-02	3.027647e-02	-9.463947e-03	2.624686e-04	8.528240e-04	5.413359e-03	3.559504e-03	1.853856e-03
69            	2.181384e-02	1.117881e-02	1.063503e-02	4.133906e-02	1.129817e-02	3.004088e-02	-9.371355e-03	2.718882e-04	8.341025e-04	5.377014e-03	3.522610e-03	1.854405e-03
70            	2.170996e-02	1.113490e-02	1.057507e-02	4.104238e-02	1.125685e-02	2.978553e-02	-9.264344e-03	2.799137e-04	8.142910e-04	5.340672e-03	3.484627e-03	1.856045e-03
71            	2.161910e-02	1.109601e-02	1.052309e-02	4.073780e-02	1.122376e-02	2.951404e-02	-9.145137e-03	2.864590e-04	7.941139e-04	5.305054e-03	3.446641e-03	1.858413e-03
72            	2.154415e-02	1.106320e-02	1.048095e-02	4.042828e-02	1.120059e-02	2.922770e-02	-9.013554e-03	2.911282e-04	7.744233e-04	5.271602e-03	3.410224e-03	1.861378e-03
73            	2.148758e-02	1.103741e-02	1.045017e-02	4.011827e-02	1.118860e-02	2.892966e-02	-8.870529e-03	2.936203e-04	7.561046e-04	5.241768e-03	3.376989e-03	1.864779e-03
74            	2.144928e-02	1.101885e-02	1.043043e-02	3.981328e-02	1.118748e-02	2.862580e-02	-8.719159e-03	2.942144e-04	7.397629e-04	5.216046e-03	3.347786e-03	1.868260e-03
75            	2.142754e-02	1.100702e-02	1.042052e-02	3.951963e-02	1.119585e-02	2.832378e-02	-8.563963e-03	2.932469e-04	7.260480e-04	5.194850e-03	3.323473e-03	1.871377e-03
76            	2.141830e-02	1.100100e-02	1.041729e-02	3.924624e-02	1.121065e-02	2.803559e-02	-8.412468e-03	2.918562e-04	7.150606e-04	5.177399e-03	3.303760e-03	1.873639e-03
77            	2.141788e-02	1.099948e-02	1.041841e-02	3.900070e-02	1.122911e-02	2.777159e-02	-8.271239e-03	2.905336e-04	7.072919e-04	5.163798e-03	3.289191e-03	1.874607e-03
78            	2.142040e-02	1.100074e-02	1.041965e-02	3.879113e-02	1.124700e-02	2.754413e-02	-8.148566e-03	2.905447e-04	7.026925e-04	5.152853e-03	3.279119e-03	1.873734e-03
79            	2.142369e-02	1.100453e-02	1.041916e-02	3.862217e-02	1.126264e-02	2.735953e-02	-8.048442e-03	2.926858e-04	7.008310e-04	5.143505e-03	3.272584e-03	1.870922e-03
80            	2.142313e-02	1.100899e-02	1.041414e-02	3.849571e-02	1.127294e-02	2.722277e-02	-7.974913e-03	2.974260e-04	7.014128e-04	5.134803e-03	3.268815e-03	1.865989e-03
81            	2.141426e-02	1.101228e-02	1.040198e-02	3.841266e-02	1.127509e-02	2.713757e-02	-7.931237e-03	3.051477e-04	7.039998e-04	5.125715e-03	3.266857e-03	1.858858e-03
82            	2.139363e-02	1.101256e-02	1.038107e-02	3.836967e-02	1.126710e-02	2.710256e-02	-7.917730e-03	3.157429e-04	7.081927e-04	5.115442e-03	3.265914e-03	1.849528e-03
83            	2.136074e-02	1.100947e-02	1.035127e-02	3.836089e-02	1.124903e-02	2.711186e-02	-7.931412e-03	3.290989e-04	7.131946e-04	5.102922e-03	3.264656e-03	1.838266e-03
84            	2.131632e-02	1.100295e-02	1.031337e-02	3.837954e-02	1.122165e-02	2.715790e-02	-7.968126e-03	3.447918e-04	7.183481e-04	5.087561e-03	3.262128e-03	1.825432e-03
85            	2.126350e-02	1.099383e-02	1.026967e-02	3.842013e-02	1.118726e-02	2.723287e-02	-8.022803e-03	3.620832e-04	7.232144e-04	5.069589e-03	3.258009e-03	1.811580e-03
86            	2.120384e-02	1.098197e-02	1.022187e-02	3.847471e-02	1.114738e-02	2.732732e-02	-8.089969e-03	3.800506e-04	7.275482e-04	5.049419e-03	3.252258e-03	1.797162e-03
87            	2.113976e-02	1.096768e-02	1.017208e-02	3.853324e-02	1.110418e-02	2.742907e-02	-8.162446e-03	3.978017e-04	7.309065e-04	5.027142e-03	3.244477e-03	1.782664e-03
88            	2.107404e-02	1.095177e-02	1.012227e-02	3.858654e-02	1.105989e-02	2.752665e-02	-8.233379e-03	4.147520e-04	7.326907e-04	5.002436e-03	3.233909e-03	1.768527e-03
89            	2.100909e-02	1.093500e-02	1.007409e-02	3.862853e-02	1.101642e-02	2.761211e-02	-8.297842e-03	4.304578e-04	7.326168e-04	4.975360e-03	3.220297e-03	1.755063e-03
90            	2.094425e-02	1.091698e-02	1.002726e-02	3.865524e-02	1.097362e-02	2.768162e-02	-8.353998e-03	4.448580e-04	7.306848e-04	4.945867e-03	3.203619e-03	1.742249e-03
91            	2.087947e-02	1.089767e-02	9.981803e-03	3.866440e-02	1.093171e-02	2.773269e-02	-8.400491e-03	4.579341e-04	7.270552e-04	4.914233e-03	3.184171e-03	1.730061e-03
92            	2.081404e-02	1.087709e-02	9.936952e-03	3.865673e-02	1.089022e-02	2.776651e-02	-8.438143e-03	4.700699e-04	7.218987e-04	4.880524e-03	3.162161e-03	1.718364e-03
93            	2.074677e-02	1.085515e-02	9.891612e-03	3.863393e-02	1.084837e-02	2.778556e-02	-8.468597e-03	4.817705e-04	7.154871e-04	4.844834e-03	3.137904e-03	1.706930e-03
94            	2.067746e-02	1.083217e-02	9.845289e-03	3.859838e-02	1.080594e-02	2.779244e-02	-8.493252e-03	4.934408e-04	7.081078e-04	4.807420e-03	3.111818e-03	1.695602e-03
95            	2.060499e-02	1.080820e-02	9.796790e-03	3.855492e-02	1.076197e-02	2.779295e-02	-8.515491e-03	5.057061e-04	7.000262e-04	4.768379e-03	3.084216e-03	1.684163e-03
96            	2.052826e-02	1.078344e-02	9.744820e-03	3.850518e-02	1.071572e-02	2.778946e-02	-8.536870e-03	5.193097e-04	6.910176e-04	4.727046e-03	3.054541e-03	1.672505e-03
97            	2.044804e-02	1.075882e-02	9.689217e-03	3.845085e-02	1.066759e-02	2.778326e-02	-8.557835e-03	5.348015e-04	6.807801e-04	4.682932e-03	3.022246e-03	1.660686e-03
98            	2.036368e-02	1.073449e-02	9.629195e-03	3.839066e-02	1.061728e-02	2.777337e-02	-8.578046e-03	5.526472e-04	6.690043e-04	4.635346e-03	2.986677e-03	1.648669e-03
99            	2.027593e-02	1.071107e-02	9.564858e-03	3.832518e-02	1.056522e-02	2.775996e-02	-8.597368e-03	5.731081e-04	6.554163e-04	4.583926e-03	2.947380e-03	1.636547e-03
100           	2.018348e-02	1.068826e-02	9.495214e-03	3.825289e-02	1.051068e-02	2.774221e-02	-8.615768e-03	5.965241e-04	6.395770e-04	4.527790e-03	2.903472e-03	1.624318e-03
101           	2.008570e-02	1.066574e-02	9.419966e-03	3.817292e-02	1.045337e-02	2.771955e-02	-8.633092e-03	6.228864e-04	6.212218e-04	4.466566e-03	2.854505e-03	1.612061e-03
102           	1.998142e-02	1.064249e-02	9.338935e-03	3.808285e-02	1.039270e-02	2.769015e-02	-8.648723e-03	6.517759e-04	6.003639e-04	4.400298e-03	2.800513e-03	1.599785e-03
103           	1.986916e-02	1.061737e-02	9.251787e-03	3.798031e-02	1.032789e-02	2.765242e-02	-8.662268e-03	6.827921e-04	5.770381e-04	4.328969e-03	2.741522e-03	1.587446e-03
104           	1.974851e-02	1.058920e-02	9.159310e-03	3.786424e-02	1.025883e-02	2.760541e-02	-8.673290e-03	7.149470e-04	5.518963e-04	4.253834e-03	2.678813e-03	1.575021e-03
105           	1.961977e-02	1.055718e-02	9.062582e-03	3.773567e-02	1.018573e-02	2.754993e-02	-8.682101e-03	7.473011e-04	5.257105e-04	4.176451e-03	2.613936e-03	1.562515e-03
106           	1.948192e-02	1.052000e-02	8.961922e-03	3.759664e-02	1.010791e-02	2.748873e-02	-8.690410e-03	7.790381e-04	4.994713e-04	4.098504e-03	2.548724e-03	1.549781e-03
107           	1.933563e-02	1.047662e-02	8.859013e-03	3.745190e-02	1.002554e-02	2.742636e-02	-8.700409e-03	8.088031e-04	4.747766e-04	4.023061e-03	2.486307e-03	1.536754e-03
108           	1.917986e-02	1.042541e-02	8.754454e-03	3.730533e-02	9.937798e-03	2.736753e-02	-8.714866e-03	8.354772e-04	4.531699e-04	3.952726e-03	2.429533e-03	1.523193e-03
109           	1.901547e-02	1.036546e-02	8.650004e-03	3.716136e-02	9.845056e-03	2.731630e-02	-8.735623e-03	8.577303e-04	4.362167e-04	3.890434e-03	2.381434e-03	1.509000e-03
110           	1.884262e-02	1.029538e-02	8.547240e-03	3.702121e-02	9.747401e-03	2.727380e-02	-8.763202e-03	8.740714e-04	4.254671e-04	3.838999e-03	2.344967e-03	1.494032e-03
111           	1.866215e-02	1.021411e-02	8.448041e-03	3.688802e-02	9.645200e-03	2.724282e-02	-8.798808e-03	8.830344e-04	4.225240e-04	3.801445e-03	2.323246e-03	1.478198e-03
112           	1.847600e-02	1.012086e-02	8.355141e-03	3.676349e-02	9.539554e-03	2.722393e-02	-8.842189e-03	8.828584e-04	4.289913e-04	3.780988e-03	2.319485e-03	1.461503e-03
113           	1.828689e-02	1.001555e-02	8.271337e-03	3.664965e-02	9.432014e-03	2.721763e-02	-8.892810e-03	8.721063e-04	4.461312e-04	3.780324e-03	2.336293e-03	1.444031e-03
114           	1.809830e-02	9.898309e-03	8.199994e-03	3.654531e-02	9.324767e-03	2.722055e-02	-8.947890e-03	8.491574e-04	4.750264e-04	3.801887e-03	2.375970e-03	1.425917e-03
115           	1.791596e-02	9.771261e-03	8.144699e-03	3.644717e-02	9.221462e-03	2.722571e-02	-9.002124e-03	8.132811e-04	5.155050e-04	3.846236e-03	2.438623e-03	1.407613e-03
116           	1.774532e-02	9.637325e-03	8.107996e-03	3.635181e-02	9.125533e-03	2.722627e-02	-9.050371e-03	7.646646e-04	5.665720e-04	3.912413e-03	2.522779e-03	1.389635e-03
117           	1.759413e-02	9.501788e-03	8.092342e-03	3.625580e-02	9.041811e-03	2.721399e-02	-9.086087e-03	7.047233e-04	6.258406e-04	3.997318e-03	2.624499e-03	1.372818e-03
118           	1.746715e-02	9.369325e-03	8.097830e-03	3.615401e-02	8.973372e-03	2.718064e-02	-9.103632e-03	6.357476e-04	6.902741e-04	4.096144e-03	2.738346e-03	1.357798e-03
119           	1.737072e-02	9.246228e-03	8.124489e-03	3.604597e-02	8.924035e-03	2.712194e-02	-9.098951e-03	5.608692e-04	7.563465e-04	4.203447e-03	2.858070e-03	1.345377e-03
120           	1.730620e-02	9.136959e-03	8.169237e-03	3.593010e-02	8.894525e-03	2.703558e-02	-9.070527e-03	4.838608e-04	8.203691e-04	4.312621e-03	2.976680e-03	1.335942e-03
121           	1.727520e-02	9.045924e-03	8.229280e-03	3.581119e-02	8.885442e-03	2.692574e-02	-9.020151e-03	4.083218e-04	8.793729e-04	4.418348e-03	3.088547e-03	1.329801e-03
122           	1.727447e-02	8.973842e-03	8.300628e-03	3.569150e-02	8.894450e-03	2.679705e-02	-8.951300e-03	3.366071e-04	9.318650e-04	4.517212e-03	3.190471e-03	1.326741e-03
123           	1.730245e-02	8.921900e-03	8.380546e-03	3.557722e-02	8.920193e-03	2.665703e-02	-8.868418e-03	2.706768e-04	9.769230e-04	4.607039e-03	3.280443e-03	1.326596e-03
124           	1.735328e-02	8.889154e-03	8.464127e-03	3.547139e-02	8.958803e-03	2.651258e-02	-8.776890e-03	2.125133e-04	1.013716e-03	4.685213e-03	3.356323e-03	1.328890e-03
125           	1.742357e-02	8.874403e-03	8.549171e-03	3.537924e-02	9.007931e-03	2.637130e-02	-8.681686e-03	1.626158e-04	1.042648e-03	4.751752e-03	3.418524e-03	1.333228e-03
126           	1.750724e-02	8.874596e-03	8.632646e-03	3.530159e-02	9.063788e-03	2.623780e-02	-8.587006e-03	1.209754e-04	1.064439e-03	4.806905e-03	3.467891e-03	1.339014e-03
127           	1.760190e-02	8.888299e-03	8.713604e-03	3.523944e-02	9.124920e-03	2.611452e-02	-8.494802e-03	8.734729e-05	1.079635e-03	4.851175e-03	3.505222e-03	1.345953e-03
128           	1.770080e-02	8.911871e-03	8.788932e-03	3.519203e-02	9.187243e-03	2.600478e-02	-8.408769e-03	6.146923e-05	1.089043e-03	4.884901e-03	3.531494e-03	1.353407e-03
129           	1.780197e-02	8.944025e-03	8.857943e-03	3.516035e-02	9.249615e-03	2.591073e-02	-8.330560e-03	4.304101e-05	1.093199e-03	4.908697e-03	3.547547e-03	1.361149e-03
130           	1.789891e-02	8.981458e-03	8.917453e-03	3.514217e-02	9.308236e-03	2.583394e-02	-8.262850e-03	3.200221e-05	1.092532e-03	4.922296e-03	3.553680e-03	1.368616e-03
131           	1.799035e-02	9.022791e-03	8.967557e-03	3.513693e-02	9.362453e-03	2.577448e-02	-8.206012e-03	2.761661e-05	1.087779e-03	4.926904e-03	3.551231e-03	1.375673e-03
132           	1.807321e-02	9.065972e-03	9.007236e-03	3.514284e-02	9.410536e-03	2.573231e-02	-8.160884e-03	2.936761e-05	1.079495e-03	4.923165e-03	3.541078e-03	1.382087e-03
133           	1.814728e-02	9.110314e-03	9.036964e-03	3.515898e-02	9.452481e-03	2.570650e-02	-8.127010e-03	3.667471e-05	1.068115e-03	4.911945e-03	3.524087e-03	1.387858e-03
134           	1.820950e-02	9.153699e-03	9.055805e-03	3.518215e-02	9.486618e-03	2.569553e-02	-8.104456e-03	4.894705e-05	1.054106e-03	4.893706e-03	3.500959e-03	1.392747e-03
135           	1.825933e-02	9.195203e-03	9.064132e-03	3.521101e-02	9.512771e-03	2.569824e-02	-8.092732e-03	6.553550e-05	1.037922e-03	4.869270e-03	3.472557e-03	1.396713e-03
136           	1.829485e-02	9.233342e-03	9.061504e-03	3.524384e-02	9.529896e-03	2.571394e-02	-8.092022e-03	8.591902e-05	1.019989e-03	4.839213e-03	3.439595e-03	1.399618e-03
137           	1.831643e-02	9.267665e-03	9.048769e-03	3.527941e-02	9.538358e-03	2.574105e-02	-8.101345e-03	1.094479e-04	1.000708e-03	4.804405e-03	3.402911e-03	1.401495e-03
138           	1.832487e-02	9.297719e-03	9.027148e-03	3.531475e-02	9.538818e-03	2.577593e-02	-8.118555e-03	1.352853e-04	9.804478e-04	4.765714e-03	3.363305e-03	1.402409e-03
139           	1.832179e-02	9.323452e-03	8.998339e-03	3.534771e-02	9.532451e-03	2.581526e-02	-8.141403e-03	1.625563e-04	9.596255e-04	4.724207e-03	3.321729e-03	1.402478e-03
140           	1.830819e-02	9.344528e-03	8.963661e-03	3.537670e-02	9.519967e-03	2.585673e-02	-8.168384e-03	1.904335e-04	9.387462e-04	4.681009e-03	3.279251e-03	1.401758e-03
141           	1.828620e-02	9.361207e-03	8.924992e-03	3.540149e-02	9.502732e-03	2.589876e-02	-8.198012e-03	2.181078e-04	9.182969e-04	4.637413e-03	3.237003e-03	1.400409e-03
142           	1.825741e-02	9.373454e-03	8.883959e-03	3.542203e-02	9.481757e-03	2.594028e-02	-8.229260e-03	2.447475e-04	8.988883e-04	4.594831e-03	3.196304e-03	1.398527e-03
143           	1.822392e-02	9.381524e-03	8.842393e-03	3.543838e-02	9.458333e-03	2.598005e-02	-8.260858e-03	2.695655e-04	8.810268e-04	4.554545e-03	3.158299e-03	1.396246e-03
144           	1.818714e-02	9.385424e-03	8.801718e-03	3.544987e-02	9.433355e-03	2.601652e-02	-8.291582e-03	2.918533e-04	8.651783e-04	4.517662e-03	3.124009e-03	1.393652e-03
145           	1.814810e-02	9.385476e-03	8.762628e-03	3.545726e-02	9.407401e-03	2.604986e-02	-8.321230e-03	3.114243e-04	8.514839e-04	4.484609e-03	3.093789e-03	1.390821e-03
146           	1.810598e-02	9.381488e-03	8.724488e-03	3.546100e-02	9.379900e-03	2.608110e-02	-8.350602e-03	3.285001e-04	8.399024e-04	4.455147e-03	3.067476e-03	1.387671e-03
147           	1.806097e-02	9.373666e-03	8.687307e-03	3.546270e-02	9.350879e-03	2.611182e-02	-8.380470e-03	3.431792e-04	8.304643e-04	4.429364e-03	3.045146e-03	1.384218e-03
148           	1.801453e-02	9.362778e-03	8.651754e-03	3.546254e-02	9.321189e-03	2.614135e-02	-8.410082e-03	3.555118e-04	8.230460e-04	4.407225e-03	3.026658e-03	1.380566e-03
149           	1.796803e-02	9.349748e-03	8.618281e-03	3.546253e-02	9.291575e-03	2.617096e-02	-8.439691e-03	3.657337e-04	8.175071e-04	4.388635e-03	3.011824e-03	1.376810e-03
150           	1.792240e-02	9.335239e-03	8.587158e-03	3.546186e-02	9.262622e-03	2.619924e-02	-8.468308e-03	3.740407e-04	8.135718e-04	4.373189e-03	3.000166e-03	1.373023e-03
151           	1.787926e-02	9.320334e-03	8.558921e-03	3.546160e-02	9.235279e-03	2.622632e-02	-8.495518e-03	3.807061e-04	8.110191e-04	4.360643e-03	2.991340e-03	1.369302e-03
152           	1.783954e-02	9.305627e-03	8.533916e-03	3.546028e-02	9.210176e-03	2.625011e-02	-8.519965e-03	3.858553e-04	8.095998e-04	4.350635e-03	2.984917e-03	1.365718e-03
153           	1.780473e-02	9.292063e-03	8.512664e-03	3.545847e-02	9.188209e-03	2.627026e-02	-8.541027e-03	3.896994e-04	8.090802e-04	4.342926e-03	2.980543e-03	1.362383e-03
154           	1.777531e-02	9.280071e-03	8.495237e-03	3.545403e-02	9.169779e-03	2.628425e-02	-8.557235e-03	3.924166e-04	8.091139e-04	4.336943e-03	2.977585e-03	1.359357e-03
155           	1.775230e-02	9.270356e-03	8.481942e-03	3.544803e-02	9.155467e-03	2.629257e-02	-8.568550e-03	3.942069e-04	8.094970e-04	4.332476e-03	2.975735e-03	1.356741e-03
156           	1.773545e-02	9.262859e-03	8.472594e-03	3.543899e-02	9.145159e-03	2.629383e-02	-8.574338e-03	3.951326e-04	8.100516e-04	4.329173e-03	2.974638e-03	1.354535e-03
157           	1.772532e-02	9.258016e-03	8.467302e-03	3.542889e-02	9.139090e-03	2.628980e-02	-8.575353e-03	3.953569e-04	8.107147e-04	4.326997e-03	2.974213e-03	1.352784e-03
158           	1.772081e-02	9.255439e-03	8.465366e-03	3.541626e-02	9.136614e-03	2.627965e-02	-8.571518e-03	3.950366e-04	8.112802e-04	4.325426e-03	2.973993e-03	1.351433e-03
159           	1.772178e-02	9.255274e-03	8.466508e-03	3.540342e-02	9.137527e-03	2.626589e-02	-8.564183e-03	3.943834e-04	8.117133e-04	4.324396e-03	2.973911e-03	1.350485e-03
160           	1.772608e-02	9.256725e-03	8.469354e-03	3.538938e-02	9.140500e-03	2.624888e-02	-8.554189e-03	3.936858e-04	8.118121e-04	4.323215e-03	2.973420e-03	1.349796e-03
161           	1.773308e-02	9.259744e-03	8.473337e-03	3.537626e-02	9.145056e-03	2.623120e-02	-8.543072e-03	3.932036e-04	8.115231e-04	4.321719e-03	2.972382e-03	1.349336e-03
162           	1.774090e-02	9.263652e-03	8.477246e-03	3.536259e-02	9.150079e-03	2.621251e-02	-8.531214e-03	3.932030e-04	8.106179e-04	4.319227e-03	2.970231e-03	1.348996e-03
163           	1.774910e-02	9.268459e-03	8.480646e-03	3.534995e-02	9.155244e-03	2.619471e-02	-8.519731e-03	3.939066e-04	8.090541e-04	4.315596e-03	2.966852e-03	1.348744e-03
164           	1.775527e-02	9.273245e-03	8.482028e-03	3.533641e-02	9.159121e-03	2.617729e-02	-8.509084e-03	3.956085e-04	8.066039e-04	4.310043e-03	2.961625e-03	1.348418e-03
165           	1.775991e-02	9.278378e-03	8.481535e-03	3.532315e-02	9.161997e-03	2.616115e-02	-8.499578e-03	3.984212e-04	8.032233e-04	4.302571e-03	2.954509e-03	1.348062e-03
166           	1.776244e-02	9.283703e-03	8.478739e-03	3.530757e-02	9.163639e-03	2.614394e-02	-8.490149e-03	4.024819e-04	7.986419e-04	4.292602e-03	2.944943e-03	1.347659e-03
167           	1.776418e-02	9.289803e-03	8.474374e-03	3.529125e-02	9.164821e-03	2.612643e-02	-8.480803e-03	4.077145e-04	7.929389e-04	4.280499e-03	2.933188e-03	1.347311e-03
168           	1.776225e-02	9.295480e-03	8.466774e-03	3.527138e-02	9.163861e-03	2.610752e-02	-8.471828e-03	4.143531e-04	7.858931e-04	4.265451e-03	2.918618e-03	1.346832e-03
169           	1.775851e-02	9.301519e-03	8.456992e-03	3.524991e-02	9.161843e-03	2.608806e-02	-8.463111e-03	4.222636e-04	7.776009e-04	4.247940e-03	2.901571e-03	1.346369e-03
170           	1.775266e-02	9.307716e-03	8.444947e-03	3.522609e-02	9.158633e-03	2.606745e-02	-8.454410e-03	4.313846e-04	7.680722e-04	4.227957e-03	2.882050e-03	1.345906e-03