# Force and moment coefficients
# dragDir     : (1.000000e+00 0.000000e+00 0.000000e+00)
# sideDir     : (0.000000e+00 1.000000e+00 0.000000e+00)
# liftDir     : (0.000000e+00 0.000000e+00 1.000000e+00)
# rollAxis    : (1.000000e+00 0.000000e+00 0.000000e+00)
# pitchAxis   : (0.000000e+00 1.000000e+00 0.000000e+00)
# yawAxis     : (0.000000e+00 0.000000e+00 1.000000e+00)
# magUInf     : 1.750000e+01
# lRef        : 1.854000e+00
# Aref        : 6.650000e-01
# CofR        : (0.000000e+00 0.000000e+00 0.000000e+00)
#
# Time        	Cd            	Cd(f)         	Cd(r)         	Cl            	Cl(f)         	Cl(r)         	CmPitch       	CmRoll        	CmYaw         	Cs            	Cs(f)         	Cs(r)         
1             	-8.438526e-03	-3.793207e-02	2.949355e-02	-1.991862e-02	-2.102866e-02	1.110040e-03	-1.106935e-02	-3.371281e-02	-8.708072e-02	1.713449e-01	-1.408284e-03	1.727532e-01
2             	4.104852e-03	-5.204032e-02	5.614517e-02	-2.747966e-02	-2.679961e-02	-6.800446e-04	-1.305978e-02	-5.409274e-02	-1.563591e-01	2.966729e-01	-8.022658e-03	3.046955e-01
3             	1.652031e-02	-6.380357e-02	8.032388e-02	-3.397070e-02	-3.150627e-02	-2.464430e-03	-1.452092e-02	-7.206372e-02	-2.177021e-01	4.068901e-01	-1.425705e-02	4.211472e-01
4             	2.129956e-02	-7.227298e-02	9.357254e-02	-3.792509e-02	-3.474934e-02	-3.175748e-03	-1.578680e-02	-8.292276e-02	-2.531917e-01	4.723528e-01	-1.701534e-02	4.893681e-01
5             	1.562562e-02	-7.778957e-02	9.341519e-02	-3.900980e-02	-3.659988e-02	-2.409923e-03	-1.709498e-02	-8.560238e-02	-2.588531e-01	4.869415e-01	-1.538241e-02	5.023239e-01
6             	1.774273e-03	-8.091538e-02	8.268966e-02	-3.772298e-02	-3.724005e-02	-4.829330e-04	-1.837856e-02	-8.180252e-02	-2.414476e-01	4.620912e-01	-1.040203e-02	4.724932e-01
7             	-1.527913e-02	-8.211270e-02	6.683357e-02	-3.492535e-02	-3.682785e-02	1.902493e-03	-1.936517e-02	-7.447313e-02	-2.125651e-01	4.169822e-01	-4.074028e-03	4.210563e-01
8             	-3.013943e-02	-8.168001e-02	5.154058e-02	-3.141036e-02	-3.539240e-02	3.982040e-03	-1.968722e-02	-6.661030e-02	-1.839275e-01	3.710078e-01	1.576353e-03	3.694314e-01
9             	-3.895448e-02	-7.987071e-02	4.091622e-02	-2.785558e-02	-3.306609e-02	5.210506e-03	-1.913830e-02	-6.039346e-02	-1.636802e-01	3.376284e-01	5.134052e-03	3.324944e-01
10            	-4.043511e-02	-7.714526e-02	3.671015e-02	-2.487180e-02	-3.027570e-02	5.403895e-03	-1.783980e-02	-5.692771e-02	-1.552942e-01	3.228166e-01	6.114071e-03	3.167025e-01
11            	-3.585288e-02	-7.398855e-02	3.813567e-02	-2.234886e-02	-2.709277e-02	4.743913e-03	-1.591834e-02	-5.606211e-02	-1.577954e-01	3.254456e-01	4.927381e-03	3.205182e-01
12            	-2.791722e-02	-7.084061e-02	4.292339e-02	-1.986868e-02	-2.348308e-02	3.614398e-03	-1.354874e-02	-5.688200e-02	-1.674045e-01	3.397130e-01	2.451980e-03	3.372610e-01
13            	-1.957250e-02	-6.807329e-02	4.850079e-02	-1.720576e-02	-1.963773e-02	2.431969e-03	-1.103485e-02	-5.828704e-02	-1.793973e-01	3.580998e-01	-3.473590e-04	3.584472e-01
14            	-1.282191e-02	-6.584860e-02	5.302669e-02	-1.429732e-02	-1.577487e-02	1.477550e-03	-8.626211e-03	-5.943764e-02	-1.903246e-01	3.750831e-01	-2.783056e-03	3.778662e-01
15            	-8.795389e-03	-6.418636e-02	5.539097e-02	-1.108842e-02	-1.199837e-02	9.099529e-04	-6.454161e-03	-5.978867e-02	-1.979658e-01	3.870516e-01	-4.440039e-03	3.914916e-01
16            	-7.471707e-03	-6.298351e-02	5.551180e-02	-7.760953e-03	-8.486266e-03	7.253122e-04	-4.605789e-03	-5.924765e-02	-2.017590e-01	3.929828e-01	-5.267633e-03	3.982504e-01
17            	-8.111252e-03	-6.209630e-02	5.398505e-02	-4.571872e-03	-5.389761e-03	8.178888e-04	-3.103825e-03	-5.804067e-02	-2.023810e-01	3.938817e-01	-5.440116e-03	3.993218e-01
18            	-9.708557e-03	-6.134194e-02	5.163338e-02	-1.671859e-03	-2.717188e-03	1.045329e-03	-1.881259e-03	-5.648766e-02	-2.010306e-01	3.916051e-01	-5.228085e-03	3.968332e-01
19            	-1.127922e-02	-6.057057e-02	4.929135e-02	7.884034e-04	-4.801624e-04	1.268566e-03	-8.743641e-04	-5.493096e-02	-1.989814e-01	3.881379e-01	-4.912471e-03	3.930504e-01
20            	-1.216060e-02	-5.966281e-02	4.750222e-02	2.859292e-03	1.465942e-03	1.393351e-03	3.629532e-05	-5.358252e-02	-1.972156e-01	3.850431e-01	-4.694039e-03	3.897371e-01
21            	-1.207452e-02	-5.861249e-02	4.653797e-02	4.526528e-03	3.145969e-03	1.380559e-03	8.827049e-04	-5.257523e-02	-1.962571e-01	3.831568e-01	-4.678672e-03	3.878355e-01
22            	-1.115882e-02	-5.749184e-02	4.633303e-02	5.878674e-03	4.629126e-03	1.249548e-03	1.689789e-03	-5.191243e-02	-1.961981e-01	3.826854e-01	-4.855374e-03	3.875407e-01
23            	-9.756201e-03	-5.640662e-02	4.665042e-02	6.992500e-03	5.943452e-03	1.049048e-03	2.447202e-03	-5.152852e-02	-1.968307e-01	3.833459e-01	-5.157763e-03	3.885037e-01
24            	-8.289314e-03	-5.546236e-02	4.717304e-02	7.953022e-03	7.114061e-03	8.389617e-04	3.137549e-03	-5.131770e-02	-1.977931e-01	3.846052e-01	-5.490450e-03	3.900957e-01
25            	-7.066610e-03	-5.472052e-02	4.765391e-02	8.786258e-03	8.122961e-03	6.632969e-04	3.729832e-03	-5.118721e-02	-1.987213e-01	3.858729e-01	-5.784877e-03	3.916577e-01
26            	-6.314293e-03	-5.418191e-02	4.786762e-02	9.604138e-03	9.049937e-03	5.542016e-04	4.247868e-03	-5.102476e-02	-1.993011e-01	3.866374e-01	-5.982385e-03	3.926198e-01
27            	-6.073123e-03	-5.381387e-02	4.774075e-02	1.042707e-02	9.909424e-03	5.176507e-04	4.695887e-03	-5.077731e-02	-1.993530e-01	3.865640e-01	-6.071027e-03	3.926351e-01
28            	-6.191905e-03	-5.354146e-02	4.734955e-02	1.119941e-02	1.066695e-02	5.324661e-04	5.067241e-03	-5.044550e-02	-1.988441e-01	3.855053e-01	-6.091490e-03	3.915968e-01
29            	-6.491778e-03	-5.329517e-02	4.680339e-02	1.187353e-02	1.130019e-02	5.733409e-04	5.363425e-03	-5.004928e-02	-1.978367e-01	3.835003e-01	-6.086589e-03	3.895869e-01
30            	-6.808958e-03	-5.301862e-02	4.620967e-02	1.244227e-02	1.182546e-02	6.168142e-04	5.604323e-03	-4.961415e-02	-1.964737e-01	3.807638e-01	-6.091803e-03	3.868556e-01
31            	-6.992957e-03	-5.269087e-02	4.569792e-02	1.282009e-02	1.217834e-02	6.417513e-04	5.768292e-03	-4.919440e-02	-1.948988e-01	3.775138e-01	-6.141895e-03	3.836557e-01
32            	-6.966917e-03	-5.231572e-02	4.534880e-02	1.297465e-02	1.233785e-02	6.368021e-04	5.850524e-03	-4.883226e-02	-1.932779e-01	3.740528e-01	-6.251477e-03	3.803043e-01
33            	-6.719032e-03	-5.189804e-02	4.517901e-02	1.296942e-02	1.236932e-02	6.000992e-04	5.884612e-03	-4.853852e-02	-1.917988e-01	3.707644e-01	-6.416554e-03	3.771810e-01
34            	-6.307977e-03	-5.145299e-02	4.514501e-02	1.287168e-02	1.233160e-02	5.400855e-04	5.895755e-03	-4.829900e-02	-1.904745e-01	3.677100e-01	-6.619446e-03	3.743295e-01
35            	-5.750875e-03	-5.098293e-02	4.523205e-02	1.275779e-02	1.229862e-02	4.591683e-04	5.919728e-03	-4.810749e-02	-1.894409e-01	3.651770e-01	-6.852427e-03	3.720294e-01
36            	-5.112042e-03	-5.049521e-02	4.538316e-02	1.269166e-02	1.232434e-02	3.673284e-04	5.978504e-03	-4.793919e-02	-1.886673e-01	3.631384e-01	-7.098075e-03	3.702365e-01
37            	-4.429947e-03	-4.999732e-02	4.556737e-02	1.268571e-02	1.241619e-02	2.695234e-04	6.073332e-03	-4.778235e-02	-1.881016e-01	3.615090e-01	-7.347055e-03	3.688561e-01
38            	-3.759596e-03	-4.949357e-02	4.573397e-02	1.279935e-02	1.262561e-02	1.737315e-04	6.225941e-03	-4.761377e-02	-1.877145e-01	3.602656e-01	-7.581737e-03	3.678473e-01
39            	-3.108534e-03	-4.898661e-02	4.587807e-02	1.302644e-02	1.294633e-02	8.010593e-05	6.433114e-03	-4.743234e-02	-1.874708e-01	3.593416e-01	-7.800032e-03	3.671416e-01
40            	-2.435624e-03	-4.847441e-02	4.603878e-02	1.331939e-02	1.333591e-02	-1.652163e-05	6.676217e-03	-4.725659e-02	-1.873725e-01	3.587153e-01	-8.014855e-03	3.667301e-01
41            	-1.738312e-03	-4.796774e-02	4.622943e-02	1.364649e-02	1.376319e-02	-1.167013e-04	6.939947e-03	-4.709859e-02	-1.874092e-01	3.583675e-01	-8.225483e-03	3.665929e-01
42            	-9.961227e-04	-4.747195e-02	4.647583e-02	1.396269e-02	1.418580e-02	-2.231067e-04	7.204452e-03	-4.697389e-02	-1.875885e-01	3.583004e-01	-8.438317e-03	3.667387e-01
43            	-2.085132e-04	-4.698698e-02	4.677846e-02	1.424771e-02	1.458368e-02	-3.359657e-04	7.459821e-03	-4.688272e-02	-1.878742e-01	3.584378e-01	-8.655306e-03	3.670931e-01
44            	6.022076e-04	-4.651911e-02	4.712132e-02	1.449157e-02	1.494340e-02	-4.518282e-04	7.697615e-03	-4.682022e-02	-1.882101e-01	3.586801e-01	-8.870060e-03	3.675502e-01
45            	1.400175e-03	-4.607583e-02	4.747600e-02	1.469897e-02	1.526444e-02	-5.654691e-04	7.914954e-03	-4.677592e-02	-1.885345e-01	3.589244e-01	-9.072318e-03	3.679967e-01
46            	2.135269e-03	-4.566669e-02	4.780196e-02	1.489396e-02	1.556359e-02	-6.696290e-04	8.116611e-03	-4.673433e-02	-1.887999e-01	3.591068e-01	-9.246494e-03	3.683533e-01
47            	2.791746e-03	-4.528734e-02	4.807909e-02	1.508633e-02	1.584857e-02	-7.622450e-04	8.305409e-03	-4.668321e-02	-1.889616e-01	3.591437e-01	-9.389791e-03	3.685335e-01
48            	3.370361e-03	-4.492662e-02	4.829698e-02	1.529503e-02	1.613879e-02	-8.437635e-04	8.491278e-03	-4.661180e-02	-1.890100e-01	3.590114e-01	-9.504289e-03	3.685157e-01
49            	3.882175e-03	-4.457392e-02	4.845610e-02	1.552864e-02	1.644462e-02	-9.159789e-04	8.680298e-03	-4.651501e-02	-1.889487e-01	3.587078e-01	-9.594833e-03	3.683026e-01
50            	4.353738e-03	-4.421992e-02	4.857366e-02	1.577511e-02	1.675770e-02	-9.825920e-04	8.870146e-03	-4.639679e-02	-1.887898e-01	3.582378e-01	-9.670867e-03	3.679086e-01
51            	4.813078e-03	-4.385920e-02	4.867228e-02	1.601474e-02	1.706233e-02	-1.047594e-03	9.054964e-03	-4.626574e-02	-1.885514e-01	3.576187e-01	-9.742056e-03	3.673608e-01
52            	5.284541e-03	-4.349033e-02	4.877487e-02	1.622160e-02	1.733588e-02	-1.114271e-03	9.225073e-03	-4.613260e-02	-1.882424e-01	3.568518e-01	-9.816516e-03	3.666683e-01
53            	5.795694e-03	-4.310966e-02	4.890536e-02	1.636906e-02	1.755566e-02	-1.186598e-03	9.371128e-03	-4.600751e-02	-1.878727e-01	3.559375e-01	-9.903910e-03	3.658414e-01
54            	6.358553e-03	-4.271117e-02	4.906972e-02	1.645214e-02	1.771853e-02	-1.266386e-03	9.492458e-03	-4.589045e-02	-1.874384e-01	3.548565e-01	-1.001012e-02	3.648667e-01
55            	6.987239e-03	-4.228792e-02	4.927516e-02	1.646523e-02	1.782096e-02	-1.355730e-03	9.588344e-03	-4.578154e-02	-1.869286e-01	3.535755e-01	-1.014088e-02	3.637164e-01
56            	7.697998e-03	-4.183714e-02	4.953514e-02	1.639484e-02	1.785170e-02	-1.456858e-03	9.654281e-03	-4.568614e-02	-1.863502e-01	3.520952e-01	-1.030261e-02	3.623978e-01
57            	8.507530e-03	-4.135977e-02	4.986731e-02	1.621941e-02	1.779159e-02	-1.572178e-03	9.681883e-03	-4.561354e-02	-1.857113e-01	3.504197e-01	-1.050141e-02	3.609211e-01
58            	9.417385e-03	-4.086021e-02	5.027760e-02	1.593244e-02	1.763432e-02	-1.701884e-03	9.668102e-03	-4.556890e-02	-1.850184e-01	3.485600e-01	-1.073834e-02	3.592984e-01
59            	1.042734e-02	-4.033523e-02	5.076257e-02	1.554894e-02	1.739483e-02	-1.845898e-03	9.620366e-03	-4.554890e-02	-1.842768e-01	3.465266e-01	-1.101353e-02	3.575402e-01
60            	1.153622e-02	-3.977777e-02	5.131399e-02	1.510377e-02	1.710785e-02	-2.004080e-03	9.555967e-03	-4.554588e-02	-1.835074e-01	3.443637e-01	-1.132550e-02	3.556892e-01
61            	1.273554e-02	-3.918973e-02	5.192527e-02	1.461761e-02	1.679279e-02	-2.175175e-03	9.483982e-03	-4.555750e-02	-1.827313e-01	3.421222e-01	-1.167022e-02	3.537924e-01
62            	1.401592e-02	-3.857887e-02	5.259479e-02	1.409941e-02	1.645719e-02	-2.357784e-03	9.407488e-03	-4.558683e-02	-1.819790e-01	3.398719e-01	-1.204307e-02	3.519150e-01
63            	1.535207e-02	-3.795279e-02	5.330486e-02	1.357292e-02	1.612132e-02	-2.548408e-03	9.334866e-03	-4.562882e-02	-1.812646e-01	3.376594e-01	-1.243494e-02	3.500943e-01
64            	1.670951e-02	-3.732019e-02	5.402970e-02	1.306601e-02	1.580811e-02	-2.742096e-03	9.275103e-03	-4.567495e-02	-1.805938e-01	3.355186e-01	-1.283457e-02	3.483531e-01
65            	1.806635e-02	-3.668636e-02	5.475272e-02	1.259548e-02	1.553126e-02	-2.935781e-03	9.233520e-03	-4.571954e-02	-1.799706e-01	3.334735e-01	-1.323386e-02	3.467073e-01
66            	1.938953e-02	-3.605731e-02	5.544684e-02	1.219023e-02	1.531492e-02	-3.124686e-03	9.219802e-03	-4.575207e-02	-1.793939e-01	3.315458e-01	-1.362096e-02	3.451667e-01
67            	2.065357e-02	-3.543948e-02	5.609305e-02	1.187154e-02	1.517672e-02	-3.305182e-03	9.240953e-03	-4.576627e-02	-1.788669e-01	3.297597e-01	-1.398707e-02	3.437468e-01
68            	2.184472e-02	-3.482612e-02	5.667084e-02	1.167501e-02	1.515026e-02	-3.475249e-03	9.312754e-03	-4.574848e-02	-1.783893e-01	3.281265e-01	-1.432607e-02	3.424525e-01
69            	2.296063e-02	-3.421725e-02	5.717788e-02	1.160869e-02	1.524324e-02	-3.634550e-03	9.438894e-03	-4.569757e-02	-1.779689e-01	3.266678e-01	-1.463499e-02	3.413028e-01
70            	2.399688e-02	-3.361006e-02	5.760694e-02	1.168744e-02	1.546980e-02	-3.782356e-03	9.626076e-03	-4.560850e-02	-1.776100e-01	3.253997e-01	-1.491019e-02	3.403099e-01
71            	2.495390e-02	-3.300906e-02	5.796296e-02	1.190588e-02	1.582469e-02	-3.918817e-03	9.871755e-03	-4.548601e-02	-1.773241e-01	3.243471e-01	-1.515052e-02	3.394976e-01
72            	2.585165e-02	-3.241207e-02	5.826372e-02	1.224414e-02	1.629082e-02	-4.046675e-03	1.016875e-02	-4.533789e-02	-1.771206e-01	3.235178e-01	-1.536172e-02	3.388795e-01
73            	2.670170e-02	-3.181994e-02	5.852164e-02	1.268520e-02	1.685287e-02	-4.167670e-03	1.051027e-02	-4.517079e-02	-1.770052e-01	3.229160e-01	-1.554720e-02	3.384632e-01
74            	2.752078e-02	-3.123458e-02	5.875536e-02	1.319833e-02	1.748242e-02	-4.284099e-03	1.088326e-02	-4.499497e-02	-1.769790e-01	3.225314e-01	-1.571330e-02	3.382447e-01
75            	2.831693e-02	-3.065859e-02	5.897552e-02	1.375696e-02	1.815421e-02	-4.397246e-03	1.127573e-02	-4.481705e-02	-1.770317e-01	3.223357e-01	-1.586386e-02	3.381996e-01
76            	2.910269e-02	-3.009147e-02	5.919415e-02	1.433584e-02	1.884475e-02	-4.508908e-03	1.167683e-02	-4.464281e-02	-1.771520e-01	3.222943e-01	-1.600489e-02	3.382992e-01
77            	2.987779e-02	-2.953857e-02	5.941637e-02	1.490751e-02	1.952659e-02	-4.619079e-03	1.207283e-02	-4.447747e-02	-1.773187e-01	3.223602e-01	-1.613862e-02	3.384988e-01
78            	3.064342e-02	-2.900197e-02	5.964538e-02	1.545776e-02	2.018572e-02	-4.727958e-03	1.245684e-02	-4.432367e-02	-1.775184e-01	3.225009e-01	-1.626798e-02	3.387689e-01
79            	3.138291e-02	-2.849157e-02	5.987448e-02	1.597451e-02	2.080757e-02	-4.833066e-03	1.282032e-02	-4.418302e-02	-1.777328e-01	3.226859e-01	-1.638984e-02	3.390757e-01
80            	3.208498e-02	-2.800521e-02	6.009019e-02	1.646307e-02	2.139603e-02	-4.932964e-03	1.316450e-02	-4.404770e-02	-1.779292e-01	3.228570e-01	-1.650074e-02	3.393577e-01
81            	3.272917e-02	-2.754736e-02	6.027653e-02	1.692963e-02	2.195426e-02	-5.024623e-03	1.348944e-02	-4.391194e-02	-1.780851e-01	3.229826e-01	-1.659382e-02	3.395764e-01
82            	3.330912e-02	-2.711676e-02	6.042588e-02	1.737790e-02	2.248507e-02	-5.107168e-03	1.379612e-02	-4.377132e-02	-1.781841e-01	3.230342e-01	-1.666704e-02	3.397012e-01
83            	3.382231e-02	-2.671918e-02	6.054150e-02	1.779546e-02	2.297550e-02	-5.180033e-03	1.407776e-02	-4.363034e-02	-1.782260e-01	3.230124e-01	-1.671984e-02	3.397322e-01
84            	3.427693e-02	-2.635946e-02	6.063639e-02	1.816101e-02	2.340535e-02	-5.244332e-03	1.432484e-02	-4.349793e-02	-1.782173e-01	3.229236e-01	-1.675549e-02	3.396791e-01
85            	3.468654e-02	-2.603254e-02	6.071908e-02	1.846525e-02	2.376723e-02	-5.301976e-03	1.453460e-02	-4.337581e-02	-1.781528e-01	3.227472e-01	-1.677921e-02	3.395264e-01
86            	3.506447e-02	-2.573446e-02	6.079893e-02	1.869807e-02	2.405288e-02	-5.354810e-03	1.470384e-02	-4.326669e-02	-1.780308e-01	3.224669e-01	-1.679737e-02	3.392642e-01
87            	3.542180e-02	-2.546199e-02	6.088379e-02	1.885721e-02	2.426171e-02	-5.404495e-03	1.483310e-02	-4.317289e-02	-1.778598e-01	3.220889e-01	-1.681542e-02	3.389043e-01
88            	3.575704e-02	-2.521589e-02	6.097293e-02	1.894596e-02	2.439724e-02	-5.451274e-03	1.492426e-02	-4.309441e-02	-1.776462e-01	3.216242e-01	-1.683415e-02	3.384583e-01
89            	3.606447e-02	-2.499112e-02	6.105559e-02	1.898756e-02	2.448138e-02	-5.493823e-03	1.498760e-02	-4.302336e-02	-1.773918e-01	3.210767e-01	-1.685342e-02	3.379301e-01
90            	3.634223e-02	-2.478094e-02	6.112317e-02	1.900297e-02	2.453547e-02	-5.532495e-03	1.503398e-02	-4.295205e-02	-1.770983e-01	3.204487e-01	-1.687400e-02	3.373227e-01
91            	3.658636e-02	-2.457962e-02	6.116597e-02	1.901091e-02	2.457758e-02	-5.566670e-03	1.507212e-02	-4.287279e-02	-1.767628e-01	3.197344e-01	-1.689559e-02	3.366300e-01
92            	3.679515e-02	-2.438280e-02	6.117795e-02	1.902193e-02	2.461761e-02	-5.595682e-03	1.510664e-02	-4.278037e-02	-1.763820e-01	3.189273e-01	-1.691835e-02	3.358456e-01
93            	3.696019e-02	-2.419191e-02	6.115210e-02	1.904922e-02	2.466774e-02	-5.618519e-03	1.514313e-02	-4.267201e-02	-1.759662e-01	3.180536e-01	-1.693935e-02	3.349930e-01
94            	3.708586e-02	-2.400188e-02	6.108774e-02	1.909596e-02	2.473144e-02	-5.635481e-03	1.518346e-02	-4.254481e-02	-1.755138e-01	3.171087e-01	-1.695949e-02	3.340682e-01
95            	3.718414e-02	-2.380712e-02	6.099126e-02	1.915519e-02	2.480373e-02	-5.648543e-03	1.522614e-02	-4.239919e-02	-1.750257e-01	3.160871e-01	-1.698215e-02	3.330692e-01
96            	3.727330e-02	-2.360185e-02	6.087515e-02	1.921274e-02	2.487281e-02	-5.660073e-03	1.526644e-02	-4.223850e-02	-1.745030e-01	3.149815e-01	-1.701219e-02	3.319937e-01
97            	3.736986e-02	-2.338584e-02	6.075570e-02	1.925010e-02	2.492274e-02	-5.672641e-03	1.529769e-02	-4.207077e-02	-1.739562e-01	3.138069e-01	-1.705277e-02	3.308597e-01
98            	3.748013e-02	-2.316052e-02	6.064065e-02	1.925936e-02	2.494615e-02	-5.686794e-03	1.531647e-02	-4.190058e-02	-1.733925e-01	3.125773e-01	-1.710381e-02	3.296811e-01
99            	3.760772e-02	-2.292979e-02	6.053751e-02	1.922976e-02	2.493296e-02	-5.703209e-03	1.531809e-02	-4.173365e-02	-1.728176e-01	3.113070e-01	-1.716407e-02	3.284710e-01
100           	3.774723e-02	-2.269660e-02	6.044383e-02	1.916429e-02	2.488503e-02	-5.720746e-03	1.530289e-02	-4.157021e-02	-1.722355e-01	3.100120e-01	-1.722944e-02	3.272415e-01
101           	3.787062e-02	-2.247662e-02	6.034724e-02	1.907372e-02	2.480952e-02	-5.735801e-03	1.527266e-02	-4.141193e-02	-1.716535e-01	3.087297e-01	-1.728870e-02	3.260184e-01
102           	3.794538e-02	-2.228745e-02	6.023283e-02	1.897627e-02	2.471956e-02	-5.743280e-03	1.523142e-02	-4.126014e-02	-1.710882e-01	3.075194e-01	-1.732849e-02	3.248479e-01
103           	3.794042e-02	-2.214785e-02	6.008827e-02	1.887646e-02	2.461579e-02	-5.739334e-03	1.517756e-02	-4.111806e-02	-1.705488e-01	3.064242e-01	-1.733668e-02	3.237609e-01
104           	3.785537e-02	-2.206397e-02	5.991934e-02	1.878554e-02	2.450877e-02	-5.723231e-03	1.511600e-02	-4.099165e-02	-1.700699e-01	3.055194e-01	-1.731017e-02	3.228296e-01
105           	3.768464e-02	-2.204153e-02	5.972617e-02	1.871047e-02	2.440549e-02	-5.695018e-03	1.505025e-02	-4.088385e-02	-1.696677e-01	3.048402e-01	-1.724758e-02	3.220878e-01
106           	3.743201e-02	-2.208572e-02	5.951773e-02	1.864303e-02	2.429773e-02	-5.654695e-03	1.497621e-02	-4.080172e-02	-1.693564e-01	3.044103e-01	-1.715127e-02	3.215616e-01
107           	3.709739e-02	-2.219816e-02	5.929556e-02	1.856632e-02	2.416954e-02	-5.603215e-03	1.488638e-02	-4.074686e-02	-1.691204e-01	3.041943e-01	-1.702322e-02	3.212175e-01
108           	3.669574e-02	-2.236975e-02	5.906549e-02	1.846720e-02	2.400963e-02	-5.542426e-03	1.477603e-02	-4.071762e-02	-1.689414e-01	3.041400e-01	-1.687141e-02	3.210115e-01
109           	3.622714e-02	-2.259409e-02	5.882122e-02	1.834732e-02	2.382030e-02	-5.472980e-03	1.464664e-02	-4.070765e-02	-1.687938e-01	3.041887e-01	-1.669950e-02	3.208882e-01
110           	3.570357e-02	-2.285371e-02	5.855728e-02	1.821477e-02	2.361090e-02	-5.396132e-03	1.450352e-02	-4.070550e-02	-1.686453e-01	3.042601e-01	-1.651528e-02	3.207754e-01
111           	3.513884e-02	-2.313386e-02	5.827270e-02	1.807177e-02	2.338580e-02	-5.314030e-03	1.434992e-02	-4.070328e-02	-1.684719e-01	3.042934e-01	-1.632518e-02	3.206186e-01
112           	3.456539e-02	-2.341938e-02	5.798477e-02	1.791563e-02	2.314661e-02	-5.230980e-03	1.418879e-02	-4.070207e-02	-1.682753e-01	3.042696e-01	-1.614044e-02	3.204101e-01
113           	3.401581e-02	-2.370131e-02	5.771713e-02	1.772904e-02	2.288079e-02	-5.151754e-03	1.401627e-02	-4.070922e-02	-1.680665e-01	3.041892e-01	-1.597186e-02	3.201610e-01
114           	3.350144e-02	-2.397597e-02	5.747742e-02	1.751585e-02	2.259352e-02	-5.077676e-03	1.383560e-02	-4.072669e-02	-1.678529e-01	3.040589e-01	-1.582343e-02	3.198823e-01
115           	3.300598e-02	-2.425106e-02	5.725704e-02	1.727700e-02	2.228354e-02	-5.006539e-03	1.364504e-02	-4.075405e-02	-1.676225e-01	3.038628e-01	-1.569112e-02	3.195539e-01
116           	3.251131e-02	-2.453696e-02	5.704827e-02	1.700961e-02	2.194521e-02	-4.935606e-03	1.344041e-02	-4.079261e-02	-1.673668e-01	3.035920e-01	-1.557082e-02	3.191628e-01
117           	3.202164e-02	-2.482879e-02	5.685043e-02	1.670651e-02	2.157232e-02	-4.865811e-03	1.321906e-02	-4.083961e-02	-1.670734e-01	3.032148e-01	-1.546597e-02	3.186808e-01
118           	3.153979e-02	-2.511839e-02	5.665818e-02	1.636339e-02	2.116093e-02	-4.797537e-03	1.297923e-02	-4.088828e-02	-1.667255e-01	3.026933e-01	-1.537887e-02	3.180722e-01
119           	3.106727e-02	-2.540147e-02	5.646873e-02	1.596826e-02	2.069926e-02	-4.731005e-03	1.271513e-02	-4.093510e-02	-1.663074e-01	3.019945e-01	-1.531014e-02	3.173047e-01
120           	3.060253e-02	-2.568204e-02	5.628457e-02	1.549823e-02	2.016387e-02	-4.665639e-03	1.241476e-02	-4.098331e-02	-1.658086e-01	3.010992e-01	-1.525903e-02	3.163582e-01
121           	3.014742e-02	-2.596541e-02	5.611283e-02	1.492716e-02	1.952874e-02	-4.601579e-03	1.206516e-02	-4.103912e-02	-1.652206e-01	2.999892e-01	-1.522600e-02	3.152152e-01
122           	2.970207e-02	-2.624816e-02	5.595023e-02	1.426369e-02	1.880237e-02	-4.538680e-03	1.167052e-02	-4.109920e-02	-1.645421e-01	2.986644e-01	-1.520987e-02	3.138743e-01
123           	2.928751e-02	-2.651799e-02	5.580550e-02	1.351573e-02	1.799566e-02	-4.479929e-03	1.123780e-02	-4.116174e-02	-1.637759e-01	2.971216e-01	-1.521504e-02	3.123367e-01
124           	2.892561e-02	-2.675064e-02	5.567625e-02	1.272942e-02	1.715798e-02	-4.428561e-03	1.079327e-02	-4.121345e-02	-1.629352e-01	2.953786e-01	-1.524586e-02	3.106245e-01
125           	2.863033e-02	-2.693478e-02	5.556511e-02	1.192632e-02	1.631289e-02	-4.386568e-03	1.034973e-02	-4.124995e-02	-1.620380e-01	2.934681e-01	-1.530390e-02	3.087720e-01
126           	2.843327e-02	-2.705326e-02	5.548653e-02	1.112833e-02	1.548667e-02	-4.358346e-03	9.922509e-03	-4.126989e-02	-1.611177e-01	2.914439e-01	-1.539571e-02	3.068396e-01
127           	2.834092e-02	-2.710034e-02	5.544126e-02	1.036117e-02	1.470633e-02	-4.345160e-03	9.525747e-03	-4.127080e-02	-1.602020e-01	2.893630e-01	-1.552047e-02	3.048835e-01
128           	2.831102e-02	-2.709120e-02	5.540221e-02	9.660009e-03	1.400052e-02	-4.340511e-03	9.170515e-03	-4.124671e-02	-1.593031e-01	2.872816e-01	-1.566231e-02	3.029439e-01
129           	2.830233e-02	-2.705697e-02	5.535930e-02	9.023714e-03	1.336266e-02	-4.338946e-03	8.850803e-03	-4.120814e-02	-1.584431e-01	2.852786e-01	-1.580380e-02	3.010824e-01
130           	2.826751e-02	-2.702337e-02	5.529088e-02	8.467631e-03	1.280099e-02	-4.333363e-03	8.567178e-03	-4.115713e-02	-1.576359e-01	2.834236e-01	-1.592409e-02	2.993477e-01
131           	2.816249e-02	-2.702811e-02	5.519060e-02	7.975057e-03	1.229313e-02	-4.318069e-03	8.305597e-03	-4.110936e-02	-1.569086e-01	2.818099e-01	-1.600367e-02	2.978135e-01
132           	2.795790e-02	-2.708609e-02	5.504399e-02	7.557032e-03	1.184529e-02	-4.288259e-03	8.066776e-03	-4.106504e-02	-1.562686e-01	2.804807e-01	-1.602829e-02	2.965090e-01
133           	2.762455e-02	-2.722364e-02	5.484820e-02	7.210014e-03	1.145051e-02	-4.240496e-03	7.845503e-03	-4.103592e-02	-1.557490e-01	2.795306e-01	-1.598373e-02	2.955143e-01
134           	2.713987e-02	-2.745216e-02	5.459203e-02	6.943726e-03	1.111471e-02	-4.170981e-03	7.642844e-03	-4.102209e-02	-1.553528e-01	2.789885e-01	-1.585860e-02	2.948471e-01
135           	2.651529e-02	-2.777792e-02	5.429321e-02	6.724782e-03	1.080672e-02	-4.081940e-03	7.444331e-03	-4.103557e-02	-1.550768e-01	2.788431e-01	-1.565525e-02	2.944983e-01
136           	2.578173e-02	-2.818670e-02	5.396843e-02	6.537261e-03	1.051437e-02	-3.977106e-03	7.245737e-03	-4.107756e-02	-1.549041e-01	2.790405e-01	-1.538388e-02	2.944244e-01
137           	2.498912e-02	-2.864648e-02	5.363560e-02	6.385268e-03	1.024944e-02	-3.864168e-03	7.056802e-03	-4.114104e-02	-1.548176e-01	2.795075e-01	-1.506389e-02	2.945714e-01
138           	2.417490e-02	-2.913138e-02	5.330628e-02	6.277409e-03	1.002520e-02	-3.747787e-03	6.886492e-03	-4.121883e-02	-1.548065e-01	2.801927e-01	-1.471010e-02	2.949028e-01
139           	2.336675e-02	-2.962076e-02	5.298751e-02	6.216977e-03	9.849475e-03	-3.632498e-03	6.740986e-03	-4.130413e-02	-1.548539e-01	2.810380e-01	-1.433487e-02	2.953729e-01
140           	2.258085e-02	-3.009562e-02	5.267646e-02	6.215855e-03	9.735892e-03	-3.520037e-03	6.627965e-03	-4.138604e-02	-1.549385e-01	2.819822e-01	-1.394737e-02	2.959296e-01
141           	2.184723e-02	-3.052869e-02	5.237592e-02	6.288630e-03	9.703717e-03	-3.415087e-03	6.559402e-03	-4.145231e-02	-1.550454e-01	2.829664e-01	-1.356219e-02	2.965286e-01
142           	2.119502e-02	-3.089745e-02	5.209247e-02	6.440063e-03	9.761582e-03	-3.321518e-03	6.541550e-03	-4.149496e-02	-1.551649e-01	2.839419e-01	-1.319394e-02	2.971359e-01
143           	2.065382e-02	-3.118334e-02	5.183715e-02	6.670711e-03	9.914455e-03	-3.243744e-03	6.579099e-03	-4.151025e-02	-1.552955e-01	2.848780e-01	-1.285654e-02	2.977345e-01
144           	2.023763e-02	-3.138092e-02	5.161855e-02	6.965694e-03	1.014926e-02	-3.183570e-03	6.666416e-03	-4.149974e-02	-1.554306e-01	2.857453e-01	-1.255797e-02	2.983032e-01
145           	1.996607e-02	-3.149014e-02	5.145622e-02	7.297527e-03	1.044145e-02	-3.143925e-03	6.792689e-03	-4.147318e-02	-1.555790e-01	2.865420e-01	-1.230803e-02	2.988500e-01
146           	1.985039e-02	-3.151480e-02	5.136520e-02	7.626556e-03	1.075299e-02	-3.126435e-03	6.939713e-03	-4.144000e-02	-1.557299e-01	2.872347e-01	-1.211255e-02	2.993473e-01
147           	1.989494e-02	-3.146540e-02	5.136033e-02	7.916330e-03	1.104809e-02	-3.131758e-03	7.089923e-03	-4.141286e-02	-1.558873e-01	2.878253e-01	-1.197466e-02	2.998000e-01
148           	2.009740e-02	-3.135105e-02	5.144845e-02	8.141008e-03	1.130063e-02	-3.159619e-03	7.230124e-03	-4.139975e-02	-1.560489e-01	2.883055e-01	-1.189613e-02	3.002016e-01
149           	2.044218e-02	-3.118236e-02	5.162455e-02	8.284182e-03	1.149216e-02	-3.207981e-03	7.350072e-03	-4.140346e-02	-1.562038e-01	2.886593e-01	-1.187419e-02	3.005335e-01
150           	2.090907e-02	-3.097299e-02	5.188206e-02	8.329917e-03	1.160399e-02	-3.274075e-03	7.439034e-03	-4.142752e-02	-1.563406e-01	2.888711e-01	-1.190506e-02	3.007761e-01
151           	2.148295e-02	-3.071984e-02	5.220279e-02	8.294750e-03	1.165047e-02	-3.355724e-03	7.503099e-03	-4.146131e-02	-1.564407e-01	2.889096e-01	-1.198594e-02	3.008955e-01
152           	2.213644e-02	-3.042441e-02	5.256085e-02	8.200054e-03	1.164911e-02	-3.449059e-03	7.549086e-03	-4.149263e-02	-1.564804e-01	2.887428e-01	-1.210901e-02	3.008518e-01
153           	2.286247e-02	-3.008367e-02	5.294613e-02	8.065934e-03	1.161899e-02	-3.553053e-03	7.586020e-03	-4.151490e-02	-1.564586e-01	2.883706e-01	-1.227326e-02	3.006439e-01
154           	2.364644e-02	-2.969412e-02	5.334056e-02	7.915868e-03	1.158144e-02	-3.665573e-03	7.623507e-03	-4.151734e-02	-1.563675e-01	2.877864e-01	-1.247433e-02	3.002607e-01
155           	2.447567e-02	-2.925664e-02	5.373230e-02	7.758769e-03	1.154339e-02	-3.784625e-03	7.664010e-03	-4.149447e-02	-1.562029e-01	2.869905e-01	-1.270770e-02	2.996982e-01
156           	2.532102e-02	-2.877973e-02	5.410075e-02	7.604509e-03	1.151056e-02	-3.906054e-03	7.708308e-03	-4.144024e-02	-1.559551e-01	2.859857e-01	-1.296226e-02	2.989480e-01
157           	2.616093e-02	-2.827727e-02	5.443820e-02	7.443203e-03	1.146995e-02	-4.026747e-03	7.748348e-03	-4.135774e-02	-1.556200e-01	2.847823e-01	-1.322883e-02	2.980111e-01
158           	2.697339e-02	-2.775886e-02	5.473225e-02	7.271054e-03	1.141457e-02	-4.143516e-03	7.779043e-03	-4.124556e-02	-1.551863e-01	2.833759e-01	-1.349839e-02	2.968743e-01
159           	2.774513e-02	-2.723401e-02	5.497914e-02	7.091252e-03	1.134557e-02	-4.254321e-03	7.799947e-03	-4.110657e-02	-1.546619e-01	2.817952e-01	-1.376433e-02	2.955595e-01
160           	2.844659e-02	-2.671539e-02	5.516198e-02	6.920046e-03	1.127498e-02	-4.354932e-03	7.814955e-03	-4.093868e-02	-1.540457e-01	2.800621e-01	-1.401465e-02	2.940768e-01
161           	2.905108e-02	-2.622048e-02	5.527156e-02	6.758256e-03	1.119980e-02	-4.441543e-03	7.820671e-03	-4.074602e-02	-1.533347e-01	2.781929e-01	-1.423820e-02	2.924311e-01
162           	2.953375e-02	-2.576365e-02	5.529740e-02	6.623045e-03	1.113376e-02	-4.510716e-03	7.822238e-03	-4.053053e-02	-1.525380e-01	2.762271e-01	-1.442449e-02	2.906516e-01
163           	2.988718e-02	-2.535365e-02	5.524083e-02	6.511546e-03	1.107299e-02	-4.561446e-03	7.817219e-03	-4.029724e-02	-1.516579e-01	2.741760e-01	-1.456993e-02	2.887459e-01
164           	3.011816e-02	-2.498854e-02	5.510670e-02	6.435384e-03	1.103001e-02	-4.594627e-03	7.812319e-03	-4.004762e-02	-1.507088e-01	2.720662e-01	-1.467572e-02	2.867419e-01
165           	3.023797e-02	-2.466459e-02	5.490257e-02	6.392790e-03	1.100474e-02	-4.611950e-03	7.808345e-03	-3.978358e-02	-1.496941e-01	2.698969e-01	-1.474568e-02	2.846426e-01
166           	3.027537e-02	-2.437474e-02	5.465010e-02	6.381801e-03	1.099928e-02	-4.617482e-03	7.808383e-03	-3.951242e-02	-1.486470e-01	2.677161e-01	-1.478900e-02	2.825051e-01