# Force and moment coefficients
# dragDir     : (1.000000e+00 0.000000e+00 0.000000e+00)
# sideDir     : (0.000000e+00 1.000000e+00 0.000000e+00)
# liftDir     : (0.000000e+00 0.000000e+00 1.000000e+00)
# rollAxis    : (1.000000e+00 0.000000e+00 0.000000e+00)
# pitchAxis   : (0.000000e+00 1.000000e+00 0.000000e+00)
# yawAxis     : (0.000000e+00 0.000000e+00 1.000000e+00)
# magUInf     : 1.750000e+01
# lRef        : 1.854000e+00
# Aref        : 6.450000e-01
# CofR        : (0.000000e+00 0.000000e+00 0.000000e+00)
#
# Time        	Cd            	Cd(f)         	Cd(r)         	Cl            	Cl(f)         	Cl(r)         	CmPitch       	CmRoll        	CmYaw         	Cs            	Cs(f)         	Cs(r)         
1             	-4.371184e-03	-3.398977e-02	2.961859e-02	-1.175696e-02	-1.230014e-02	5.431808e-04	-6.421662e-03	-3.180418e-02	-9.081514e-02	1.762973e-01	-2.666481e-03	1.789638e-01
2             	1.420203e-02	-4.346940e-02	5.767143e-02	-1.487693e-02	-1.279513e-02	-2.081795e-03	-5.356669e-03	-5.057042e-02	-1.618305e-01	3.012102e-01	-1.122542e-02	3.124356e-01
3             	3.229484e-02	-5.123860e-02	8.353344e-02	-1.831625e-02	-1.367072e-02	-4.645526e-03	-4.512596e-03	-6.738602e-02	-2.244851e-01	4.104230e-01	-1.927359e-02	4.296966e-01
4             	4.023182e-02	-5.751616e-02	9.774798e-02	-2.036430e-02	-1.457746e-02	-5.786848e-03	-4.395304e-03	-7.763207e-02	-2.610595e-01	4.759094e-01	-2.310477e-02	4.990141e-01
5             	3.504536e-02	-6.282293e-02	9.786829e-02	-2.067378e-02	-1.558921e-02	-5.084563e-03	-5.252324e-03	-8.034561e-02	-2.680582e-01	4.925387e-01	-2.178890e-02	5.143276e-01
6             	1.940647e-02	-6.726788e-02	8.667435e-02	-1.928900e-02	-1.637868e-02	-2.910313e-03	-6.734185e-03	-7.697111e-02	-2.520348e-01	4.711350e-01	-1.646737e-02	4.876023e-01
7             	-7.920112e-04	-7.058525e-02	6.979324e-02	-1.668703e-02	-1.659564e-02	-9.139558e-05	-8.252122e-03	-7.018924e-02	-2.243139e-01	4.299123e-01	-9.357724e-03	4.392700e-01
8             	-1.912375e-02	-7.218884e-02	5.306509e-02	-1.318853e-02	-1.565695e-02	2.468413e-03	-9.062679e-03	-6.262696e-02	-1.961926e-01	3.868398e-01	-2.772662e-03	3.896125e-01
9             	-3.105942e-02	-7.191550e-02	4.085607e-02	-9.515469e-03	-1.364634e-02	4.130871e-03	-8.888605e-03	-5.638579e-02	-1.755853e-01	3.545770e-01	1.703209e-03	3.528738e-01
10            	-3.512823e-02	-6.997036e-02	3.484214e-02	-5.908672e-03	-1.059792e-02	4.689250e-03	-7.643586e-03	-5.240625e-02	-1.658158e-01	3.387218e-01	3.545110e-03	3.351767e-01
11            	-3.229865e-02	-6.690331e-02	3.460466e-02	-2.622908e-03	-6.902931e-03	4.280023e-03	-5.591477e-03	-5.075399e-02	-1.661984e-01	3.384676e-01	3.035389e-03	3.354322e-01
12            	-2.536522e-02	-6.346007e-02	3.809485e-02	4.107913e-04	-2.887190e-03	3.297981e-03	-3.092586e-03	-5.077746e-02	-1.733971e-01	3.488877e-01	1.046744e-03	3.478410e-01
13            	-1.733502e-02	-6.022165e-02	4.288663e-02	3.420294e-03	1.254502e-03	2.165792e-03	-4.556452e-04	-5.155414e-02	-1.833958e-01	3.638567e-01	-1.467429e-03	3.653241e-01
14            	-1.050737e-02	-5.762269e-02	4.711532e-02	6.438829e-03	5.234523e-03	1.204306e-03	2.015109e-03	-5.236901e-02	-1.930421e-01	3.785831e-01	-3.750533e-03	3.823336e-01
15            	-6.130913e-03	-5.581540e-02	4.968449e-02	9.403432e-03	8.814654e-03	5.887782e-04	4.112938e-03	-5.274995e-02	-2.002538e-01	3.897412e-01	-5.383165e-03	3.951244e-01
16            	-4.476705e-03	-5.475437e-02	5.027766e-02	1.229111e-02	1.193405e-02	3.570643e-04	5.788492e-03	-5.251601e-02	-2.043374e-01	3.962150e-01	-6.229940e-03	4.024449e-01
17            	-4.933537e-03	-5.420584e-02	4.927231e-02	1.498349e-02	1.456113e-02	4.223599e-04	7.069385e-03	-5.173908e-02	-2.055734e-01	3.982800e-01	-6.433423e-03	4.047135e-01
18            	-6.539092e-03	-5.388164e-02	4.734255e-02	1.740534e-02	1.675738e-02	6.479571e-04	8.054712e-03	-5.061209e-02	-2.048143e-01	3.971355e-01	-6.246554e-03	4.033820e-01
19            	-8.363680e-03	-5.354286e-02	4.517918e-02	1.948523e-02	1.858204e-02	9.031946e-04	8.839421e-03	-4.936102e-02	-2.030117e-01	3.941769e-01	-5.923180e-03	4.001001e-01
20            	-9.678090e-03	-5.302742e-02	4.334933e-02	2.116557e-02	2.008079e-02	1.084780e-03	9.498003e-03	-4.818838e-02	-2.010054e-01	3.906675e-01	-5.671645e-03	3.963391e-01
21            	-1.004994e-02	-5.228604e-02	4.223611e-02	2.233016e-02	2.119589e-02	1.134266e-03	1.003081e-02	-4.726107e-02	-1.993299e-01	3.874013e-01	-5.629274e-03	3.930306e-01
22            	-9.590474e-03	-5.139802e-02	4.180755e-02	2.314155e-02	2.207500e-02	1.066557e-03	1.050422e-02	-4.660278e-02	-1.983127e-01	3.851017e-01	-5.761847e-03	3.908635e-01
23            	-8.488355e-03	-5.043755e-02	4.194920e-02	2.368274e-02	2.277401e-02	9.087291e-04	1.093264e-02	-4.619337e-02	-1.979192e-01	3.837605e-01	-6.039003e-03	3.897995e-01
24            	-7.037643e-03	-4.951090e-02	4.247325e-02	2.398053e-02	2.327821e-02	7.023173e-04	1.128795e-02	-4.599207e-02	-1.979413e-01	3.830831e-01	-6.399749e-03	3.894828e-01
25            	-5.524801e-03	-4.871312e-02	4.318832e-02	2.403376e-02	2.354585e-02	4.879134e-04	1.152897e-02	-4.595072e-02	-1.981202e-01	3.826827e-01	-6.778836e-03	3.894615e-01
26            	-4.182958e-03	-4.809257e-02	4.390961e-02	2.389205e-02	2.359371e-02	2.983365e-04	1.164769e-02	-4.600109e-02	-1.982218e-01	3.822025e-01	-7.120560e-03	3.893231e-01
27            	-3.147586e-03	-4.765444e-02	4.450686e-02	2.359107e-02	2.343883e-02	1.522392e-04	1.164330e-02	-4.608065e-02	-1.980367e-01	3.812917e-01	-7.390888e-03	3.886826e-01
28            	-2.423742e-03	-4.738222e-02	4.495847e-02	2.311439e-02	2.306457e-02	4.981439e-05	1.150738e-02	-4.617035e-02	-1.974897e-01	3.798009e-01	-7.589236e-03	3.873901e-01
29            	-1.934323e-03	-4.719709e-02	4.526277e-02	2.256982e-02	2.258961e-02	-1.978763e-05	1.130470e-02	-4.622993e-02	-1.966454e-01	3.778218e-01	-7.734509e-03	3.855563e-01
30            	-1.537926e-03	-4.703102e-02	4.549309e-02	2.197370e-02	2.205016e-02	-7.645627e-05	1.106331e-02	-4.626205e-02	-1.956231e-01	3.755150e-01	-7.865606e-03	3.833806e-01
31            	-1.088329e-03	-4.682873e-02	4.574040e-02	2.132748e-02	2.146805e-02	-1.405654e-04	1.080431e-02	-4.628457e-02	-1.945705e-01	3.730957e-01	-8.022691e-03	3.811184e-01
32            	-4.648631e-04	-4.656820e-02	4.610334e-02	2.059781e-02	2.082716e-02	-2.293475e-04	1.052825e-02	-4.633577e-02	-1.936585e-01	3.708455e-01	-8.235767e-03	3.790813e-01
33            	4.473234e-04	-4.623206e-02	4.667938e-02	1.972135e-02	2.008043e-02	-3.590790e-04	1.021976e-02	-4.645572e-02	-1.929914e-01	3.689044e-01	-8.539207e-03	3.774436e-01
34            	1.664557e-03	-4.583369e-02	4.749825e-02	1.866104e-02	1.919219e-02	-5.311550e-04	9.861674e-03	-4.666597e-02	-1.925852e-01	3.673017e-01	-8.934321e-03	3.762360e-01
35            	3.104573e-03	-4.538156e-02	4.848614e-02	1.751321e-02	1.824758e-02	-7.343772e-04	9.490980e-03	-4.693385e-02	-1.923983e-01	3.660138e-01	-9.391360e-03	3.754052e-01
36            	4.645654e-03	-4.487387e-02	4.951952e-02	1.646331e-02	1.741491e-02	-9.516009e-04	9.183254e-03	-4.719669e-02	-1.923925e-01	3.650511e-01	-9.866948e-03	3.749180e-01
37            	6.197831e-03	-4.431615e-02	5.051398e-02	1.561327e-02	1.678346e-02	-1.170182e-03	8.976819e-03	-4.741506e-02	-1.925114e-01	3.643585e-01	-1.033211e-02	3.746906e-01
38            	7.703761e-03	-4.373662e-02	5.144038e-02	1.493899e-02	1.632114e-02	-1.382151e-03	8.851646e-03	-4.758850e-02	-1.926836e-01	3.638272e-01	-1.076999e-02	3.745972e-01
39            	9.136659e-03	-4.313334e-02	5.227000e-02	1.445568e-02	1.603989e-02	-1.584217e-03	8.812056e-03	-4.770167e-02	-1.928403e-01	3.633335e-01	-1.117352e-02	3.745070e-01
40            	1.047290e-02	-4.251955e-02	5.299245e-02	1.412555e-02	1.589852e-02	-1.772966e-03	8.835743e-03	-4.775600e-02	-1.929169e-01	3.627611e-01	-1.153633e-02	3.742974e-01
41            	1.171817e-02	-4.189974e-02	5.361792e-02	1.391255e-02	1.586173e-02	-1.949180e-03	8.905453e-03	-4.775883e-02	-1.928851e-01	3.620460e-01	-1.186205e-02	3.739081e-01
42            	1.290333e-02	-4.126937e-02	5.417270e-02	1.376818e-02	1.588526e-02	-2.117078e-03	9.001169e-03	-4.772104e-02	-1.927283e-01	3.611322e-01	-1.216218e-02	3.732944e-01
43            	1.406710e-02	-4.063114e-02	5.469824e-02	1.362790e-02	1.590995e-02	-2.282050e-03	9.095998e-03	-4.766469e-02	-1.924547e-01	3.600077e-01	-1.245081e-02	3.724585e-01
44            	1.523226e-02	-3.997901e-02	5.521126e-02	1.347680e-02	1.592411e-02	-2.447313e-03	9.185714e-03	-4.759513e-02	-1.920749e-01	3.586761e-01	-1.273691e-02	3.714130e-01
45            	1.642778e-02	-3.932920e-02	5.575698e-02	1.324460e-02	1.586144e-02	-2.616843e-03	9.239142e-03	-4.754309e-02	-1.916235e-01	3.571833e-01	-1.303180e-02	3.702151e-01
46            	1.763813e-02	-3.869025e-02	5.632838e-02	1.292014e-02	1.570864e-02	-2.788498e-03	9.248570e-03	-4.750931e-02	-1.910816e-01	3.554996e-01	-1.333187e-02	3.688314e-01
47            	1.885981e-02	-3.807087e-02	5.693068e-02	1.248077e-02	1.544264e-02	-2.961864e-03	9.202251e-03	-4.750078e-02	-1.904383e-01	3.536006e-01	-1.363802e-02	3.672386e-01
48            	2.007218e-02	-3.747159e-02	5.754377e-02	1.194743e-02	1.508141e-02	-3.133973e-03	9.107690e-03	-4.750768e-02	-1.896781e-01	3.514688e-01	-1.394367e-02	3.654125e-01
49            	2.128048e-02	-3.689874e-02	5.817922e-02	1.130765e-02	1.461316e-02	-3.305512e-03	8.959338e-03	-4.753898e-02	-1.888173e-01	3.491373e-01	-1.424864e-02	3.633859e-01
50            	2.246759e-02	-3.634818e-02	5.881577e-02	1.061321e-02	1.408720e-02	-3.473994e-03	8.780599e-03	-4.758197e-02	-1.878895e-01	3.466929e-01	-1.454304e-02	3.612359e-01
51            	2.362454e-02	-3.581704e-02	5.944158e-02	9.907066e-03	1.354515e-02	-3.638080e-03	8.591613e-03	-4.762931e-02	-1.869368e-01	3.442314e-01	-1.482109e-02	3.590525e-01
52            	2.473257e-02	-3.530289e-02	6.003546e-02	9.247406e-03	1.304250e-02	-3.795098e-03	8.418801e-03	-4.766917e-02	-1.860024e-01	3.418553e-01	-1.507477e-02	3.569300e-01
53            	2.579777e-02	-3.480003e-02	6.059780e-02	8.680259e-03	1.262605e-02	-3.945792e-03	8.285922e-03	-4.769892e-02	-1.851571e-01	3.397051e-01	-1.530462e-02	3.550097e-01
54            	2.681404e-02	-3.429659e-02	6.111064e-02	8.267717e-03	1.235690e-02	-4.089187e-03	8.223046e-03	-4.770362e-02	-1.844370e-01	3.378556e-01	-1.550924e-02	3.533648e-01
55            	2.779832e-02	-3.378604e-02	6.158435e-02	8.018840e-03	1.224656e-02	-4.227720e-03	8.237140e-03	-4.768520e-02	-1.838701e-01	3.363477e-01	-1.569621e-02	3.520439e-01
56            	2.873543e-02	-3.327737e-02	6.201280e-02	7.926956e-03	1.228618e-02	-4.359227e-03	8.322705e-03	-4.764509e-02	-1.834484e-01	3.351746e-01	-1.586109e-02	3.510357e-01
57            	2.961856e-02	-3.277939e-02	6.239795e-02	7.964382e-03	1.244715e-02	-4.482763e-03	8.464954e-03	-4.758867e-02	-1.831483e-01	3.342892e-01	-1.600371e-02	3.502929e-01
58            	3.047040e-02	-3.228330e-02	6.275370e-02	8.092000e-03	1.269365e-02	-4.601648e-03	8.647648e-03	-4.751850e-02	-1.829400e-01	3.336072e-01	-1.613638e-02	3.497436e-01
59            	3.126988e-02	-3.180533e-02	6.307521e-02	8.263015e-03	1.297593e-02	-4.712911e-03	8.844418e-03	-4.744027e-02	-1.827836e-01	3.330587e-01	-1.625422e-02	3.493129e-01
60            	3.197139e-02	-3.135910e-02	6.333049e-02	8.465614e-03	1.327580e-02	-4.810187e-03	9.042994e-03	-4.734479e-02	-1.826264e-01	3.325683e-01	-1.634225e-02	3.489105e-01
61            	3.255182e-02	-3.096193e-02	6.351375e-02	8.672021e-03	1.356225e-02	-4.890226e-03	9.226236e-03	-4.723784e-02	-1.824526e-01	3.321186e-01	-1.639326e-02	3.485119e-01
62            	3.299885e-02	-3.061820e-02	6.361705e-02	8.875030e-03	1.382635e-02	-4.951324e-03	9.388839e-03	-4.711762e-02	-1.822481e-01	3.316926e-01	-1.640177e-02	3.480944e-01
63            	3.331497e-02	-3.033750e-02	6.365248e-02	9.055528e-03	1.404949e-02	-4.993963e-03	9.521727e-03	-4.699499e-02	-1.820329e-01	3.313316e-01	-1.636705e-02	3.476987e-01
64            	3.348003e-02	-3.013375e-02	6.361378e-02	9.213209e-03	1.422880e-02	-5.015588e-03	9.622193e-03	-4.687377e-02	-1.818136e-01	3.310695e-01	-1.627882e-02	3.473483e-01
65            	3.345619e-02	-3.001268e-02	6.346887e-02	9.396266e-03	1.440725e-02	-5.010988e-03	9.709120e-03	-4.674078e-02	-1.815846e-01	3.309265e-01	-1.612136e-02	3.470478e-01
66            	3.323770e-02	-2.997527e-02	6.321297e-02	9.617962e-03	1.459742e-02	-4.979455e-03	9.788436e-03	-4.659412e-02	-1.813400e-01	3.308977e-01	-1.589116e-02	3.467889e-01
67            	3.282509e-02	-3.001516e-02	6.284026e-02	9.898904e-03	1.481991e-02	-4.921007e-03	9.870459e-03	-4.642771e-02	-1.810747e-01	3.309733e-01	-1.558804e-02	3.465614e-01
68            	3.219951e-02	-3.014905e-02	6.234856e-02	1.020228e-02	1.503533e-02	-4.833046e-03	9.934186e-03	-4.624881e-02	-1.807563e-01	3.310990e-01	-1.520676e-02	3.463058e-01
69            	3.132397e-02	-3.038059e-02	6.170456e-02	1.052395e-02	1.523417e-02	-4.710223e-03	9.972198e-03	-4.604257e-02	-1.803115e-01	3.311473e-01	-1.473786e-02	3.458852e-01
70            	3.025455e-02	-3.069940e-02	6.095395e-02	1.079462e-02	1.535487e-02	-4.560242e-03	9.957554e-03	-4.582668e-02	-1.797405e-01	3.310723e-01	-1.420438e-02	3.452766e-01
71            	2.905984e-02	-3.108672e-02	6.014656e-02	1.096101e-02	1.535363e-02	-4.392624e-03	9.873127e-03	-4.561664e-02	-1.790570e-01	3.308436e-01	-1.363523e-02	3.444788e-01
72            	2.785564e-02	-3.152154e-02	5.937718e-02	1.091158e-02	1.513528e-02	-4.223704e-03	9.679494e-03	-4.544936e-02	-1.782891e-01	3.304282e-01	-1.307497e-02	3.435032e-01
73            	2.675533e-02	-3.196031e-02	5.871564e-02	1.061045e-02	1.467982e-02	-4.069365e-03	9.374592e-03	-4.533798e-02	-1.774645e-01	3.297935e-01	-1.256768e-02	3.423612e-01
74            	2.586382e-02	-3.235465e-02	5.821846e-02	1.002614e-02	1.397017e-02	-3.944033e-03	8.957101e-03	-4.528656e-02	-1.765756e-01	3.288384e-01	-1.215636e-02	3.409948e-01
75            	2.527206e-02	-3.264752e-02	5.791958e-02	9.167629e-03	1.302815e-02	-3.860520e-03	8.444335e-03	-4.528355e-02	-1.756086e-01	3.274555e-01	-1.188086e-02	3.393364e-01
76            	2.505595e-02	-3.278793e-02	5.784388e-02	8.064356e-03	1.189398e-02	-3.829621e-03	7.861799e-03	-4.531591e-02	-1.745620e-01	3.255762e-01	-1.177385e-02	3.373501e-01
77            	2.525704e-02	-3.271329e-02	5.797033e-02	6.828222e-03	1.068536e-02	-3.857140e-03	7.271251e-03	-4.534181e-02	-1.734339e-01	3.231612e-01	-1.185326e-02	3.350145e-01
78            	2.588631e-02	-3.237012e-02	5.825644e-02	5.595257e-03	9.539997e-03	-3.944740e-03	6.742369e-03	-4.531328e-02	-1.722282e-01	3.202106e-01	-1.212297e-02	3.323335e-01
79            	2.691642e-02	-3.172897e-02	5.864540e-02	4.485870e-03	8.574421e-03	-4.088551e-03	6.331486e-03	-4.518719e-02	-1.709484e-01	3.167462e-01	-1.257536e-02	3.293215e-01
80            	2.830099e-02	-3.079292e-02	5.909391e-02	3.552911e-03	7.834584e-03	-4.281673e-03	6.058128e-03	-4.494342e-02	-1.695853e-01	3.127919e-01	-1.318939e-02	3.259813e-01
81            	2.996198e-02	-2.962204e-02	5.958402e-02	2.775958e-03	7.289346e-03	-4.513387e-03	5.901367e-03	-4.460303e-02	-1.681712e-01	3.084759e-01	-1.393327e-02	3.224091e-01
82            	3.177884e-02	-2.830493e-02	6.008377e-02	2.109833e-03	6.877198e-03	-4.767365e-03	5.822281e-03	-4.419435e-02	-1.667039e-01	3.038967e-01	-1.475551e-02	3.186522e-01
83            	3.356537e-02	-2.697721e-02	6.054258e-02	1.484716e-03	6.502030e-03	-5.017314e-03	5.759672e-03	-4.375989e-02	-1.651908e-01	2.992106e-01	-1.558554e-02	3.147961e-01
84            	3.515944e-02	-2.576837e-02	6.092781e-02	8.268611e-04	6.067083e-03	-5.240222e-03	5.653653e-03	-4.334809e-02	-1.636608e-01	2.946056e-01	-1.635800e-02	3.109636e-01
85            	3.646742e-02	-2.476478e-02	6.123220e-02	8.065875e-05	5.503370e-03	-5.422711e-03	5.463041e-03	-4.299849e-02	-1.621184e-01	2.901876e-01	-1.702462e-02	3.072122e-01
86            	3.740219e-02	-2.404657e-02	6.144876e-02	-7.686815e-04	4.784308e-03	-5.552990e-03	5.168649e-03	-4.274767e-02	-1.606138e-01	2.861536e-01	-1.753699e-02	3.036906e-01
87            	3.789956e-02	-2.365919e-02	6.155875e-02	-1.676654e-03	3.945278e-03	-5.621932e-03	4.783605e-03	-4.260897e-02	-1.592027e-01	2.827032e-01	-1.785104e-02	3.005543e-01
88            	3.795039e-02	-2.361724e-02	6.156763e-02	-2.586630e-03	3.041632e-03	-5.628262e-03	4.334947e-03	-4.259243e-02	-1.579554e-01	2.800214e-01	-1.794466e-02	2.979661e-01
89            	3.759751e-02	-2.390130e-02	6.149881e-02	-3.441032e-03	2.136899e-03	-5.577931e-03	3.857415e-03	-4.270006e-02	-1.569551e-01	2.782698e-01	-1.782023e-02	2.960900e-01
90            	3.694660e-02	-2.442831e-02	6.137491e-02	-4.155054e-03	1.330602e-03	-5.485656e-03	3.408129e-03	-4.290161e-02	-1.562397e-01	2.774441e-01	-1.751764e-02	2.949617e-01
91            	3.614312e-02	-2.508720e-02	6.123031e-02	-4.677195e-03	6.945610e-04	-5.371756e-03	3.033159e-03	-4.315876e-02	-1.558074e-01	2.774112e-01	-1.710181e-02	2.945130e-01
92            	3.533338e-02	-2.576667e-02	6.110004e-02	-4.987474e-03	2.693718e-04	-5.256845e-03	2.763109e-03	-4.343336e-02	-1.556307e-01	2.779725e-01	-1.664448e-02	2.946169e-01
93            	3.464095e-02	-2.637836e-02	6.101931e-02	-5.117336e-03	4.102695e-05	-5.158362e-03	2.599695e-03	-4.369883e-02	-1.556603e-01	2.788975e-01	-1.621157e-02	2.951091e-01
94            	3.412480e-02	-2.687049e-02	6.099529e-02	-5.107643e-03	-2.300110e-05	-5.084642e-03	2.530821e-03	-4.393289e-02	-1.558225e-01	2.799597e-01	-1.584264e-02	2.958023e-01
95            	3.378526e-02	-2.723262e-02	6.101788e-02	-4.997223e-03	3.851606e-05	-5.035739e-03	2.537128e-03	-4.412525e-02	-1.560517e-01	2.810054e-01	-1.554894e-02	2.965544e-01
96            	3.360252e-02	-2.747581e-02	6.107833e-02	-4.842721e-03	1.660293e-04	-5.008750e-03	2.587390e-03	-4.427707e-02	-1.562957e-01	2.819327e-01	-1.532929e-02	2.972620e-01
97            	3.352274e-02	-2.763725e-02	6.115999e-02	-4.676654e-03	3.194162e-04	-4.996070e-03	2.657743e-03	-4.439862e-02	-1.565367e-01	2.827436e-01	-1.516488e-02	2.979085e-01
98            	3.351237e-02	-2.773398e-02	6.124635e-02	-4.515899e-03	4.774327e-04	-4.993332e-03	2.735382e-03	-4.449016e-02	-1.567372e-01	2.833977e-01	-1.503835e-02	2.984361e-01
99            	3.355020e-02	-2.778332e-02	6.133352e-02	-4.368878e-03	6.288068e-04	-4.997685e-03	2.813246e-03	-4.455842e-02	-1.568936e-01	2.839122e-01	-1.493747e-02	2.988496e-01
100           	3.363833e-02	-2.778916e-02	6.142749e-02	-4.243186e-03	7.660923e-04	-5.009278e-03	2.887685e-03	-4.460833e-02	-1.570064e-01	2.842882e-01	-1.486228e-02	2.991505e-01
101           	3.377683e-02	-2.776473e-02	6.154156e-02	-4.159549e-03	8.684820e-04	-5.028031e-03	2.948256e-03	-4.465314e-02	-1.570909e-01	2.845570e-01	-1.481242e-02	2.993694e-01
102           	3.397993e-02	-2.770057e-02	6.168050e-02	-4.116310e-03	9.397101e-04	-5.056020e-03	2.997865e-03	-4.469053e-02	-1.571437e-01	2.847011e-01	-1.479309e-02	2.994942e-01
103           	3.427298e-02	-2.758511e-02	6.185809e-02	-4.125116e-03	9.719593e-04	-5.097076e-03	3.034517e-03	-4.472160e-02	-1.571645e-01	2.846999e-01	-1.481460e-02	2.995145e-01
104           	3.466457e-02	-2.740238e-02	6.206695e-02	-4.183076e-03	9.691156e-04	-5.152191e-03	3.060654e-03	-4.473466e-02	-1.571217e-01	2.844765e-01	-1.488350e-02	2.993600e-01
105           	3.517978e-02	-2.713971e-02	6.231949e-02	-4.295519e-03	9.291850e-04	-5.224704e-03	3.076944e-03	-4.472960e-02	-1.570187e-01	2.840180e-01	-1.500973e-02	2.990277e-01
106           	3.581358e-02	-2.678957e-02	6.260315e-02	-4.455999e-03	8.578232e-04	-5.313822e-03	3.085823e-03	-4.469636e-02	-1.568317e-01	2.832731e-01	-1.519518e-02	2.984683e-01
107           	3.655757e-02	-2.634969e-02	6.290726e-02	-4.635185e-03	7.833376e-04	-5.418522e-03	3.100930e-03	-4.462848e-02	-1.565695e-01	2.822606e-01	-1.543918e-02	2.976998e-01
108           	3.738744e-02	-2.582391e-02	6.321135e-02	-4.806371e-03	7.289037e-04	-5.535274e-03	3.132089e-03	-4.451763e-02	-1.562310e-01	2.809929e-01	-1.573456e-02	2.967274e-01
109           	3.829144e-02	-2.522589e-02	6.351733e-02	-4.985466e-03	6.775784e-04	-5.663045e-03	3.170311e-03	-4.437161e-02	-1.558153e-01	2.794728e-01	-1.607892e-02	2.955518e-01
110           	3.922130e-02	-2.458358e-02	6.380488e-02	-5.172058e-03	6.228720e-04	-5.794930e-03	3.208901e-03	-4.419423e-02	-1.553227e-01	2.777285e-01	-1.645842e-02	2.941869e-01
111           	4.013618e-02	-2.393762e-02	6.407381e-02	-5.382972e-03	5.417742e-04	-5.924747e-03	3.233260e-03	-4.400572e-02	-1.547920e-01	2.758648e-01	-1.685959e-02	2.927244e-01
112           	4.098591e-02	-2.333610e-02	6.432201e-02	-5.651344e-03	3.940364e-04	-6.045380e-03	3.219708e-03	-4.382905e-02	-1.542454e-01	2.739601e-01	-1.726534e-02	2.912254e-01
113           	4.171301e-02	-2.283475e-02	6.454776e-02	-5.996337e-03	1.522736e-04	-6.148611e-03	3.150442e-03	-4.369125e-02	-1.537411e-01	2.721773e-01	-1.765247e-02	2.898297e-01
114           	4.223907e-02	-2.247719e-02	6.471626e-02	-6.390239e-03	-1.667586e-04	-6.223481e-03	3.028361e-03	-4.359673e-02	-1.532966e-01	2.706188e-01	-1.798727e-02	2.886060e-01
115           	4.249801e-02	-2.230468e-02	6.480269e-02	-6.806872e-03	-5.461724e-04	-6.260700e-03	2.857264e-03	-4.355369e-02	-1.529294e-01	2.693875e-01	-1.823559e-02	2.876231e-01
116           	4.243488e-02	-2.234464e-02	6.477952e-02	-7.223683e-03	-9.711054e-04	-6.252578e-03	2.640736e-03	-4.356208e-02	-1.526320e-01	2.685271e-01	-1.836850e-02	2.868956e-01
117           	4.201636e-02	-2.260872e-02	6.462508e-02	-7.608088e-03	-1.413637e-03	-6.194451e-03	2.390407e-03	-4.361690e-02	-1.523916e-01	2.680599e-01	-1.836165e-02	2.864215e-01
118           	4.121561e-02	-2.308575e-02	6.430136e-02	-7.896273e-03	-1.813710e-03	-6.082563e-03	2.134426e-03	-4.369355e-02	-1.521664e-01	2.679444e-01	-1.819420e-02	2.861386e-01
119           	4.006939e-02	-2.375256e-02	6.382195e-02	-8.061499e-03	-2.139325e-03	-5.922174e-03	1.891424e-03	-4.378726e-02	-1.519846e-01	2.682283e-01	-1.787043e-02	2.860987e-01
120           	3.867493e-02	-2.455908e-02	6.323401e-02	-8.092125e-03	-2.365086e-03	-5.727038e-03	1.680976e-03	-4.389654e-02	-1.518973e-01	2.689553e-01	-1.741963e-02	2.863750e-01
121           	3.714524e-02	-2.543392e-02	6.257915e-02	-7.968785e-03	-2.455890e-03	-5.512895e-03	1.528503e-03	-4.400654e-02	-1.519291e-01	2.700927e-01	-1.688269e-02	2.869754e-01
122           	3.565496e-02	-2.630004e-02	6.195500e-02	-7.743539e-03	-2.439114e-03	-5.304424e-03	1.432655e-03	-4.412752e-02	-1.521078e-01	2.715667e-01	-1.632445e-02	2.878911e-01
123           	3.434797e-02	-2.710072e-02	6.144869e-02	-7.478463e-03	-2.357004e-03	-5.121458e-03	1.382227e-03	-4.427471e-02	-1.524721e-01	2.733411e-01	-1.580158e-02	2.891427e-01
124           	3.334467e-02	-2.778984e-02	6.113451e-02	-7.244790e-03	-2.263769e-03	-4.981021e-03	1.358626e-03	-4.446218e-02	-1.530182e-01	2.753136e-01	-1.536144e-02	2.906750e-01
125           	3.269371e-02	-2.834055e-02	6.103426e-02	-7.070955e-03	-2.180943e-03	-4.890013e-03	1.354535e-03	-4.468740e-02	-1.537222e-01	2.773893e-01	-1.502753e-02	2.924169e-01
126           	3.242493e-02	-2.873154e-02	6.115647e-02	-6.982438e-03	-2.129595e-03	-4.852843e-03	1.361624e-03	-4.494401e-02	-1.545410e-01	2.794487e-01	-1.481667e-02	2.942654e-01
127           	3.250244e-02	-2.896635e-02	6.146879e-02	-6.975791e-03	-2.111329e-03	-4.864462e-03	1.376566e-03	-4.521757e-02	-1.554172e-01	2.813879e-01	-1.472327e-02	2.961111e-01
128           	3.285556e-02	-2.906024e-02	6.191580e-02	-7.032679e-03	-2.117828e-03	-4.914851e-03	1.398511e-03	-4.548802e-02	-1.562823e-01	2.831094e-01	-1.472758e-02	2.978370e-01
129           	3.341496e-02	-2.903322e-02	6.244818e-02	-7.137032e-03	-2.142817e-03	-4.994215e-03	1.425699e-03	-4.574070e-02	-1.570867e-01	2.845551e-01	-1.480916e-02	2.993642e-01
130           	3.411739e-02	-2.889597e-02	6.301336e-02	-7.258595e-03	-2.165037e-03	-5.093558e-03	1.464261e-03	-4.595466e-02	-1.577771e-01	2.856575e-01	-1.494833e-02	3.006058e-01
131           	3.491695e-02	-2.865939e-02	6.357634e-02	-7.376936e-03	-2.170610e-03	-5.206326e-03	1.517858e-03	-4.611787e-02	-1.583308e-01	2.863998e-01	-1.513087e-02	3.015307e-01
132           	3.580309e-02	-2.832589e-02	6.412899e-02	-7.494923e-03	-2.163937e-03	-5.330985e-03	1.583524e-03	-4.622744e-02	-1.587371e-01	2.867642e-01	-1.535498e-02	3.021192e-01
133           	3.676459e-02	-2.789345e-02	6.465805e-02	-7.600345e-03	-2.134680e-03	-5.465665e-03	1.665493e-03	-4.627575e-02	-1.589959e-01	2.867532e-01	-1.561928e-02	3.023725e-01
134           	3.780100e-02	-2.736219e-02	6.516319e-02	-7.703012e-03	-2.092624e-03	-5.610388e-03	1.758882e-03	-4.626269e-02	-1.591058e-01	2.863606e-01	-1.592555e-02	3.022861e-01
135           	3.891056e-02	-2.673277e-02	6.564333e-02	-7.809432e-03	-2.044262e-03	-5.765170e-03	1.860454e-03	-4.618805e-02	-1.590707e-01	2.855904e-01	-1.627549e-02	3.018659e-01
136           	4.007307e-02	-2.602455e-02	6.609762e-02	-7.928101e-03	-2.001016e-03	-5.927085e-03	1.963035e-03	-4.606108e-02	-1.589094e-01	2.844908e-01	-1.666397e-02	3.011548e-01
137           	4.125124e-02	-2.527655e-02	6.652779e-02	-8.079198e-03	-1.988235e-03	-6.090963e-03	2.051364e-03	-4.590217e-02	-1.586402e-01	2.831233e-01	-1.707854e-02	3.002019e-01
138           	4.238225e-02	-2.453794e-02	6.692019e-02	-8.278973e-03	-2.030875e-03	-6.248098e-03	2.108612e-03	-4.572907e-02	-1.582712e-01	2.815446e-01	-1.749885e-02	2.990435e-01
139           	4.339312e-02	-2.385538e-02	6.724850e-02	-8.531610e-03	-2.143215e-03	-6.388396e-03	2.122590e-03	-4.555194e-02	-1.577899e-01	2.797781e-01	-1.790084e-02	2.976790e-01
140           	4.422893e-02	-2.326715e-02	6.749608e-02	-8.841160e-03	-2.336966e-03	-6.504194e-03	2.083614e-03	-4.538162e-02	-1.571934e-01	2.778581e-01	-1.826436e-02	2.961225e-01
141           	4.484642e-02	-2.280600e-02	6.765242e-02	-9.206351e-03	-2.616718e-03	-6.589633e-03	1.986458e-03	-4.522921e-02	-1.564940e-01	2.758472e-01	-1.857044e-02	2.944176e-01
142           	4.520974e-02	-2.250181e-02	6.771155e-02	-9.613489e-03	-2.973646e-03	-6.639843e-03	1.833099e-03	-4.510668e-02	-1.557271e-01	2.738544e-01	-1.879984e-02	2.926543e-01
143           	4.528879e-02	-2.238067e-02	6.766946e-02	-1.003915e-02	-3.388707e-03	-6.650447e-03	1.630870e-03	-4.502507e-02	-1.549351e-01	2.719997e-01	-1.893523e-02	2.909350e-01
144           	4.506265e-02	-2.245747e-02	6.752012e-02	-1.045299e-02	-3.834583e-03	-6.618412e-03	1.391914e-03	-4.498880e-02	-1.541551e-01	2.703867e-01	-1.896172e-02	2.893484e-01
145           	4.452721e-02	-2.273146e-02	6.725867e-02	-1.083372e-02	-4.290543e-03	-6.543177e-03	1.126317e-03	-4.499506e-02	-1.534039e-01	2.690625e-01	-1.887262e-02	2.879351e-01
146           	4.371255e-02	-2.317893e-02	6.689149e-02	-1.115318e-02	-4.724171e-03	-6.429007e-03	8.524179e-04	-4.503521e-02	-1.527008e-01	2.680526e-01	-1.867448e-02	2.867271e-01
147           	4.267061e-02	-2.376599e-02	6.643660e-02	-1.139762e-02	-5.114558e-03	-6.283062e-03	5.842522e-04	-4.510130e-02	-1.520598e-01	2.673537e-01	-1.838299e-02	2.857367e-01
148           	4.147300e-02	-2.444479e-02	6.591778e-02	-1.155973e-02	-5.444373e-03	-6.115355e-03	3.354907e-04	-4.518129e-02	-1.514823e-01	2.669239e-01	-1.802040e-02	2.849443e-01
149           	4.021050e-02	-2.515880e-02	6.536930e-02	-1.163297e-02	-5.694416e-03	-5.938558e-03	1.220707e-04	-4.526405e-02	-1.509797e-01	2.667262e-01	-1.761657e-02	2.843428e-01
150           	3.896972e-02	-2.584946e-02	6.481917e-02	-1.160013e-02	-5.835199e-03	-5.764931e-03	-3.513410e-05	-4.533431e-02	-1.505596e-01	2.667197e-01	-1.719979e-02	2.839195e-01
151           	3.782455e-02	-2.647291e-02	6.429746e-02	-1.146520e-02	-5.860354e-03	-5.604842e-03	-1.277560e-04	-4.538518e-02	-1.502295e-01	2.668668e-01	-1.679609e-02	2.836629e-01
152           	3.681664e-02	-2.700330e-02	6.381994e-02	-1.123372e-02	-5.769711e-03	-5.464006e-03	-1.528527e-04	-4.541162e-02	-1.499958e-01	2.671515e-01	-1.641999e-02	2.835715e-01
153           	3.596347e-02	-2.743066e-02	6.339413e-02	-1.091925e-02	-5.574399e-03	-5.344850e-03	-1.147745e-04	-4.541239e-02	-1.498591e-01	2.675596e-01	-1.607928e-02	2.836389e-01
154           	3.526278e-02	-2.775225e-02	6.301503e-02	-1.054361e-02	-5.296611e-03	-5.246994e-03	-2.480825e-05	-4.538364e-02	-1.498001e-01	2.680446e-01	-1.577781e-02	2.838224e-01
155           	3.470764e-02	-2.797547e-02	6.268311e-02	-1.013569e-02	-4.966218e-03	-5.169468e-03	1.016251e-04	-4.532929e-02	-1.498095e-01	2.685808e-01	-1.551911e-02	2.840999e-01
156           	3.428667e-02	-2.810917e-02	6.239584e-02	-9.727131e-03	-4.616593e-03	-5.110538e-03	2.469723e-04	-4.525250e-02	-1.498655e-01	2.691187e-01	-1.530612e-02	2.844248e-01
157           	3.398541e-02	-2.816463e-02	6.215004e-02	-9.350130e-03	-4.281956e-03	-5.068174e-03	3.931093e-04	-4.515734e-02	-1.499414e-01	2.696036e-01	-1.513961e-02	2.847432e-01
158           	3.380630e-02	-2.814787e-02	6.195417e-02	-9.046595e-03	-4.003820e-03	-5.042775e-03	5.194774e-04	-4.505102e-02	-1.500067e-01	2.699633e-01	-1.502509e-02	2.849884e-01
159           	3.374755e-02	-2.806555e-02	6.181310e-02	-8.839001e-03	-3.804915e-03	-5.034086e-03	6.145858e-04	-4.493932e-02	-1.500395e-01	2.701504e-01	-1.496428e-02	2.851147e-01
160           	3.381561e-02	-2.792063e-02	6.173624e-02	-8.747477e-03	-3.704401e-03	-5.043076e-03	6.693374e-04	-4.482843e-02	-1.500172e-01	2.701145e-01	-1.495997e-02	2.850744e-01
161           	3.401232e-02	-2.772220e-02	6.173452e-02	-8.783823e-03	-3.713763e-03	-5.070059e-03	6.781480e-04	-4.472836e-02	-1.499375e-01	2.698510e-01	-1.501196e-02	2.848630e-01
162           	3.432400e-02	-2.748438e-02	6.180838e-02	-8.956722e-03	-3.843550e-03	-5.113172e-03	6.348110e-04	-4.464638e-02	-1.497873e-01	2.693457e-01	-1.511448e-02	2.844601e-01
163           	3.473263e-02	-2.722392e-02	6.195656e-02	-9.259425e-03	-4.089529e-03	-5.169896e-03	5.401834e-04	-4.459024e-02	-1.495747e-01	2.686306e-01	-1.525941e-02	2.838900e-01
164           	3.520547e-02	-2.695831e-02	6.216378e-02	-9.681673e-03	-4.446044e-03	-5.235629e-03	3.947925e-04	-4.456104e-02	-1.492892e-01	2.677103e-01	-1.543407e-02	2.831443e-01
165           	3.571137e-02	-2.670808e-02	6.241945e-02	-1.020751e-02	-4.901478e-03	-5.306033e-03	2.022777e-04	-4.456376e-02	-1.489485e-01	2.666455e-01	-1.562572e-02	2.822712e-01