# Force and moment coefficients
# dragDir     : (1.000000e+00 0.000000e+00 0.000000e+00)
# sideDir     : (0.000000e+00 1.000000e+00 0.000000e+00)
# liftDir     : (0.000000e+00 0.000000e+00 1.000000e+00)
# rollAxis    : (1.000000e+00 0.000000e+00 0.000000e+00)
# pitchAxis   : (0.000000e+00 1.000000e+00 0.000000e+00)
# yawAxis     : (0.000000e+00 0.000000e+00 1.000000e+00)
# magUInf     : 1.750000e+01
# lRef        : 1.854000e+00
# Aref        : 6.650000e-01
# CofR        : (0.000000e+00 0.000000e+00 0.000000e+00)
#
# Time        	Cd            	Cd(f)         	Cd(r)         	Cl            	Cl(f)         	Cl(r)         	CmPitch       	CmRoll        	CmYaw         	Cs            	Cs(f)         	Cs(r)         
1             	1.333777e-02	-1.844188e-02	3.177965e-02	1.422807e-02	2.001057e-03	1.222702e-02	-5.112980e-03	-2.511077e-02	9.377441e-02	1.967299e-01	1.921393e-01	4.590531e-03
2             	3.645225e-02	-2.614337e-02	6.259563e-02	8.825177e-03	5.296567e-03	3.528610e-03	8.839785e-04	-4.436950e-02	1.431456e-01	3.134100e-01	2.998506e-01	1.355934e-02
3             	5.801785e-02	-3.239792e-02	9.041577e-02	3.961849e-03	8.389049e-03	-4.427199e-03	6.408124e-03	-6.140684e-02	1.861707e-01	4.161961e-01	3.942688e-01	2.192731e-02
4             	6.821611e-02	-3.751506e-02	1.057312e-01	1.660662e-03	9.880078e-03	-8.219416e-03	9.049747e-03	-7.162312e-02	2.136789e-01	4.794031e-01	4.533804e-01	2.602262e-02
5             	6.415211e-02	-4.208991e-02	1.062420e-01	1.923043e-03	9.350750e-03	-7.427707e-03	8.389228e-03	-7.416596e-02	2.238627e-01	4.974800e-01	4.726027e-01	2.487730e-02
6             	4.884263e-02	-4.613108e-02	9.497370e-02	4.235448e-03	7.221793e-03	-2.986345e-03	5.104069e-03	-7.055239e-02	2.199218e-01	4.792095e-01	4.595265e-01	1.968293e-02
7             	2.884600e-02	-4.915673e-02	7.800273e-02	7.498519e-03	4.421403e-03	3.077115e-03	6.721440e-04	-6.357973e-02	2.073818e-01	4.403972e-01	4.275804e-01	1.281685e-02
8             	1.091288e-02	-5.060314e-02	6.151602e-02	1.074620e-02	1.903982e-03	8.842219e-03	-3.469118e-03	-5.605958e-02	1.920805e-01	3.974471e-01	3.908041e-01	6.643012e-03
9             	-2.747117e-04	-5.023877e-02	4.996406e-02	1.341831e-02	3.357077e-04	1.308260e-02	-6.373446e-03	-5.010142e-02	1.790087e-01	3.634893e-01	3.607533e-01	2.735954e-03
10            	-3.174099e-03	-4.853731e-02	4.536321e-02	1.428458e-02	-6.280004e-05	1.434738e-02	-7.205090e-03	-4.695026e-02	1.700481e-01	3.433719e-01	3.417340e-01	1.637828e-03
11            	9.315679e-04	-4.599390e-02	4.692547e-02	1.372742e-02	5.251604e-04	1.320225e-02	-6.338547e-03	-4.645969e-02	1.656120e-01	3.370767e-01	3.341503e-01	2.926351e-03
12            	9.076310e-03	-4.319793e-02	5.227424e-02	1.261892e-02	1.679804e-03	1.093912e-02	-4.629658e-03	-4.773609e-02	1.649159e-01	3.410912e-01	3.354615e-01	5.629716e-03
13            	1.803439e-02	-4.072475e-02	5.875914e-02	1.147248e-02	2.947299e-03	8.525177e-03	-2.788939e-03	-4.974195e-02	1.662126e-01	3.498366e-01	3.411309e-01	8.705690e-03
14            	2.541031e-02	-3.888163e-02	6.429194e-02	1.063419e-02	3.988069e-03	6.646123e-03	-1.329027e-03	-5.158678e-02	1.677623e-01	3.582619e-01	3.468932e-01	1.136870e-02
15            	3.003301e-02	-3.771751e-02	6.775052e-02	1.019639e-02	4.638631e-03	5.557763e-03	-4.595659e-04	-5.273401e-02	1.682943e-01	3.630217e-01	3.498052e-01	1.321652e-02
16            	3.182411e-02	-3.704974e-02	6.887384e-02	1.026324e-02	4.888291e-03	5.374948e-03	-2.433283e-04	-5.296179e-02	1.672801e-01	3.629313e-01	3.487458e-01	1.418559e-02
17            	3.163330e-02	-3.663290e-02	6.826620e-02	1.051019e-02	4.858103e-03	5.652084e-03	-3.969907e-04	-5.244955e-02	1.646693e-01	3.583458e-01	3.438422e-01	1.450356e-02
18            	3.060490e-02	-3.618824e-02	6.679313e-02	1.076684e-02	4.709783e-03	6.057053e-03	-6.736348e-04	-5.149068e-02	1.609197e-01	3.508229e-01	3.363311e-01	1.449177e-02
19            	2.960644e-02	-3.561615e-02	6.522260e-02	1.089064e-02	4.566598e-03	6.324046e-03	-8.787235e-04	-5.041938e-02	1.568248e-01	3.424299e-01	3.280398e-01	1.439018e-02
20            	2.930942e-02	-3.485400e-02	6.416343e-02	1.076800e-02	4.523877e-03	6.244121e-03	-8.601221e-04	-4.950871e-02	1.529685e-01	3.347436e-01	3.203403e-01	1.440336e-02
21            	3.001488e-02	-3.389954e-02	6.391442e-02	1.037106e-02	4.624025e-03	5.747035e-03	-5.615047e-04	-4.890698e-02	1.497075e-01	3.286955e-01	3.140552e-01	1.464022e-02
22            	3.166662e-02	-3.280818e-02	6.447479e-02	9.734140e-03	4.858927e-03	4.875214e-03	-8.143486e-06	-4.864149e-02	1.471298e-01	3.244797e-01	3.093697e-01	1.511002e-02
23            	3.380378e-02	-3.169984e-02	6.550362e-02	9.125213e-03	5.162787e-03	3.962425e-03	6.001810e-04	-4.860173e-02	1.453309e-01	3.220522e-01	3.063570e-01	1.569519e-02
24            	3.592292e-02	-3.068176e-02	6.660468e-02	8.775277e-03	5.463689e-03	3.311588e-03	1.076050e-03	-4.864322e-02	1.442491e-01	3.210271e-01	3.047626e-01	1.626447e-02
25            	3.767466e-02	-2.981791e-02	6.749257e-02	8.771739e-03	5.712371e-03	3.059368e-03	1.326502e-03	-4.865524e-02	1.437020e-01	3.208687e-01	3.041363e-01	1.673234e-02
26            	3.891154e-02	-2.911807e-02	6.802962e-02	9.091829e-03	5.887872e-03	3.203957e-03	1.341958e-03	-4.857385e-02	1.434759e-01	3.210880e-01	3.040199e-01	1.706813e-02
27            	3.965917e-02	-2.855133e-02	6.821049e-02	9.660555e-03	5.994175e-03	3.666380e-03	1.163897e-03	-4.838091e-02	1.433981e-01	3.213672e-01	3.040817e-01	1.728551e-02
28            	4.003839e-02	-2.805459e-02	6.809298e-02	1.041142e-02	6.048064e-03	4.363352e-03	8.423561e-04	-4.807378e-02	1.433168e-01	3.214752e-01	3.040544e-01	1.742085e-02
29            	4.020744e-02	-2.758851e-02	6.779595e-02	1.121344e-02	6.072004e-03	5.141433e-03	4.652858e-04	-4.769223e-02	1.431353e-01	3.213064e-01	3.037885e-01	1.751788e-02
30            	4.020708e-02	-2.712040e-02	6.732749e-02	1.214185e-02	6.072106e-03	6.069742e-03	1.182336e-06	-4.722394e-02	1.428989e-01	3.209446e-01	3.033712e-01	1.757338e-02
31            	4.011064e-02	-2.666338e-02	6.677402e-02	1.312315e-02	6.058664e-03	7.064488e-03	-5.029119e-04	-4.671870e-02	1.426775e-01	3.205506e-01	3.029528e-01	1.759777e-02
32            	3.989327e-02	-2.621392e-02	6.610719e-02	1.424292e-02	6.028046e-03	8.214872e-03	-1.093413e-03	-4.616055e-02	1.425322e-01	3.202072e-01	3.026359e-01	1.757138e-02
33            	3.953812e-02	-2.578713e-02	6.532526e-02	1.552910e-02	5.977678e-03	9.551425e-03	-1.786874e-03	-4.555620e-02	1.425342e-01	3.200307e-01	3.025495e-01	1.748118e-02
34            	3.901323e-02	-2.542093e-02	6.443416e-02	1.695188e-02	5.903117e-03	1.104877e-02	-2.572825e-03	-4.492755e-02	1.427396e-01	3.201025e-01	3.027908e-01	1.731166e-02
35            	3.828115e-02	-2.515693e-02	6.343808e-02	1.846754e-02	5.799061e-03	1.266848e-02	-3.434708e-03	-4.429751e-02	1.431982e-01	3.204965e-01	3.034465e-01	1.705003e-02
36            	3.733003e-02	-2.502105e-02	6.235108e-02	2.001115e-02	5.663867e-03	1.434729e-02	-4.341710e-03	-4.368607e-02	1.438971e-01	3.211863e-01	3.044902e-01	1.669612e-02
37            	3.616073e-02	-2.502979e-02	6.119052e-02	2.151922e-02	5.497681e-03	1.602154e-02	-5.261930e-03	-4.311016e-02	1.448076e-01	3.221248e-01	3.058700e-01	1.625481e-02
38            	3.480705e-02	-2.518457e-02	5.999162e-02	2.291339e-02	5.305498e-03	1.760789e-02	-6.151196e-03	-4.258809e-02	1.458704e-01	3.232263e-01	3.074835e-01	1.574278e-02
39            	3.336394e-02	-2.545204e-02	5.881598e-02	2.415382e-02	5.100721e-03	1.905310e-02	-6.976189e-03	-4.213401e-02	1.470581e-01	3.245065e-01	3.093114e-01	1.519511e-02
40            	3.190426e-02	-2.581529e-02	5.771955e-02	2.514913e-02	4.893712e-03	2.025542e-02	-7.680856e-03	-4.176742e-02	1.482705e-01	3.258224e-01	3.111817e-01	1.464067e-02
41            	3.052122e-02	-2.626053e-02	5.678175e-02	2.578941e-02	4.697518e-03	2.109189e-02	-8.197185e-03	-4.152114e-02	1.494297e-01	3.270864e-01	3.129729e-01	1.411354e-02
42            	2.931093e-02	-2.674759e-02	5.605852e-02	2.602637e-02	4.525877e-03	2.150049e-02	-8.487307e-03	-4.140305e-02	1.504258e-01	3.281503e-01	3.145009e-01	1.364931e-02
43            	2.832867e-02	-2.722352e-02	5.555219e-02	2.590807e-02	4.386626e-03	2.152144e-02	-8.567408e-03	-4.138785e-02	1.511748e-01	3.288873e-01	3.156184e-01	1.326886e-02
44            	2.758444e-02	-2.763019e-02	5.521463e-02	2.554994e-02	4.280951e-03	2.126899e-02	-8.494019e-03	-4.142241e-02	1.515809e-01	3.291165e-01	3.161392e-01	1.297732e-02
45            	2.708013e-02	-2.793470e-02	5.501483e-02	2.504419e-02	4.208843e-03	2.083534e-02	-8.313250e-03	-4.147476e-02	1.516391e-01	3.288241e-01	3.160512e-01	1.277293e-02
46            	2.679919e-02	-2.812865e-02	5.492785e-02	2.445186e-02	4.168104e-03	2.028376e-02	-8.057827e-03	-4.152825e-02	1.513790e-01	3.280522e-01	3.154051e-01	1.264710e-02
47            	2.671008e-02	-2.820743e-02	5.491750e-02	2.384181e-02	4.154524e-03	1.968729e-02	-7.766382e-03	-4.156246e-02	1.508281e-01	3.268308e-01	3.142435e-01	1.258731e-02
48            	2.674294e-02	-2.818905e-02	5.493199e-02	2.327912e-02	4.158534e-03	1.912059e-02	-7.481028e-03	-4.156052e-02	1.500474e-01	3.252307e-01	3.126628e-01	1.256796e-02
49            	2.679697e-02	-2.810464e-02	5.490161e-02	2.281958e-02	4.165954e-03	1.865363e-02	-7.243838e-03	-4.150312e-02	1.490822e-01	3.232722e-01	3.107183e-01	1.255395e-02
50            	2.685331e-02	-2.798318e-02	5.483649e-02	2.243040e-02	4.173660e-03	1.825674e-02	-7.041539e-03	-4.140983e-02	1.480068e-01	3.210901e-01	3.085519e-01	1.253827e-02
51            	2.689713e-02	-2.786752e-02	5.476465e-02	2.200614e-02	4.179573e-03	1.782657e-02	-6.823497e-03	-4.131609e-02	1.468254e-01	3.186876e-01	3.061693e-01	1.251838e-02
52            	2.696148e-02	-2.778088e-02	5.474236e-02	2.145032e-02	4.188270e-03	1.726204e-02	-6.536887e-03	-4.126162e-02	1.455760e-01	3.161647e-01	3.036584e-01	1.250634e-02
53            	2.706242e-02	-2.772519e-02	5.478761e-02	2.073614e-02	4.202032e-03	1.653411e-02	-6.166037e-03	-4.125640e-02	1.442663e-01	3.135500e-01	3.010413e-01	1.250866e-02
54            	2.720442e-02	-2.768777e-02	5.489220e-02	1.990561e-02	4.221347e-03	1.568426e-02	-5.731458e-03	-4.128999e-02	1.429257e-01	3.109054e-01	2.983784e-01	1.252704e-02
55            	2.737004e-02	-2.765381e-02	5.502385e-02	1.901179e-02	4.243874e-03	1.476792e-02	-5.262022e-03	-4.133883e-02	1.415331e-01	3.081792e-01	2.956227e-01	1.255651e-02
56            	2.758186e-02	-2.761236e-02	5.519421e-02	1.805629e-02	4.273171e-03	1.378312e-02	-4.754973e-03	-4.140328e-02	1.400837e-01	3.053783e-01	2.927728e-01	1.260541e-02
57            	2.782691e-02	-2.755735e-02	5.538426e-02	1.708680e-02	4.307244e-03	1.277956e-02	-4.236156e-03	-4.147081e-02	1.386054e-01	3.025466e-01	2.898787e-01	1.266795e-02
58            	2.809473e-02	-2.747874e-02	5.557347e-02	1.616622e-02	4.344501e-03	1.182172e-02	-3.738608e-03	-4.152611e-02	1.371393e-01	2.997574e-01	2.870180e-01	1.273940e-02
59            	2.835544e-02	-2.736754e-02	5.572298e-02	1.538064e-02	4.380583e-03	1.100006e-02	-3.309739e-03	-4.154526e-02	1.357320e-01	2.970803e-01	2.842722e-01	1.280811e-02
60            	2.861566e-02	-2.721773e-02	5.583339e-02	1.475446e-02	4.416382e-03	1.033807e-02	-2.960846e-03	-4.152556e-02	1.344156e-01	2.945820e-01	2.817065e-01	1.287541e-02
61            	2.886254e-02	-2.701849e-02	5.588103e-02	1.434956e-02	4.450166e-03	9.899397e-03	-2.724615e-03	-4.144976e-02	1.332300e-01	2.923310e-01	2.793955e-01	1.293543e-02
62            	2.908485e-02	-2.677108e-02	5.585592e-02	1.418681e-02	4.480352e-03	9.706457e-03	-2.613053e-03	-4.131350e-02	1.322042e-01	2.903768e-01	2.773926e-01	1.298421e-02
63            	2.926871e-02	-2.648360e-02	5.575231e-02	1.426761e-02	4.505019e-03	9.762587e-03	-2.628784e-03	-4.111795e-02	1.313597e-01	2.887537e-01	2.757365e-01	1.301715e-02
64            	2.941178e-02	-2.617712e-02	5.558890e-02	1.453972e-02	4.523862e-03	1.001585e-02	-2.745995e-03	-4.088301e-02	1.307150e-01	2.874987e-01	2.744643e-01	1.303433e-02
65            	2.950350e-02	-2.587624e-02	5.537974e-02	1.493692e-02	4.535372e-03	1.040155e-02	-2.933088e-03	-4.062799e-02	1.302594e-01	2.865857e-01	2.735522e-01	1.303348e-02
66            	2.953820e-02	-2.560055e-02	5.513875e-02	1.539697e-02	4.538750e-03	1.085822e-02	-3.159737e-03	-4.036965e-02	1.299687e-01	2.859642e-01	2.729507e-01	1.301344e-02
67            	2.951735e-02	-2.534295e-02	5.486030e-02	1.591685e-02	4.534230e-03	1.138262e-02	-3.424197e-03	-4.010162e-02	1.298104e-01	2.855702e-01	2.725954e-01	1.297473e-02
68            	2.947274e-02	-2.507967e-02	5.455240e-02	1.650547e-02	4.526339e-03	1.197913e-02	-3.726397e-03	-3.981603e-02	1.297524e-01	2.853603e-01	2.724325e-01	1.292781e-02
69            	2.943575e-02	-2.478199e-02	5.421775e-02	1.718346e-02	4.519514e-03	1.266395e-02	-4.072217e-03	-3.949987e-02	1.297562e-01	2.852798e-01	2.723961e-01	1.288373e-02
70            	2.944741e-02	-2.442051e-02	5.386792e-02	1.796518e-02	4.519587e-03	1.344559e-02	-4.463004e-03	-3.914421e-02	1.297875e-01	2.852903e-01	2.724327e-01	1.285763e-02
71            	2.952606e-02	-2.399614e-02	5.352220e-02	1.881166e-02	4.529253e-03	1.428241e-02	-4.876579e-03	-3.875917e-02	1.298223e-01	2.853574e-01	2.725010e-01	1.285643e-02
72            	2.968420e-02	-2.351359e-02	5.319779e-02	1.970225e-02	4.550427e-03	1.515183e-02	-5.300700e-03	-3.835569e-02	1.298712e-01	2.855115e-01	2.726269e-01	1.288458e-02
73            	2.992897e-02	-2.299095e-02	5.291992e-02	2.057482e-02	4.584025e-03	1.599080e-02	-5.703386e-03	-3.795543e-02	1.299226e-01	2.857366e-01	2.727909e-01	1.294567e-02
74            	3.024632e-02	-2.246102e-02	5.270734e-02	2.135734e-02	4.627984e-03	1.672936e-02	-6.050686e-03	-3.758418e-02	1.299668e-01	2.860048e-01	2.729692e-01	1.303560e-02
75            	3.063631e-02	-2.194576e-02	5.258208e-02	2.199715e-02	4.682274e-03	1.731488e-02	-6.316303e-03	-3.726392e-02	1.300112e-01	2.863296e-01	2.731760e-01	1.315364e-02
76            	3.107402e-02	-2.146825e-02	5.254228e-02	2.246895e-02	4.743315e-03	1.772563e-02	-6.491160e-03	-3.700526e-02	1.300584e-01	2.866975e-01	2.734072e-01	1.329030e-02
77            	3.151923e-02	-2.105442e-02	5.257365e-02	2.275479e-02	4.805567e-03	1.794923e-02	-6.571830e-03	-3.681404e-02	1.301052e-01	2.870729e-01	2.736417e-01	1.343121e-02
78            	3.193946e-02	-2.072439e-02	5.266386e-02	2.284352e-02	4.864466e-03	1.797906e-02	-6.557296e-03	-3.669412e-02	1.301498e-01	2.874294e-01	2.738645e-01	1.356493e-02
79            	3.232706e-02	-2.046712e-02	5.279418e-02	2.277513e-02	4.918840e-03	1.785629e-02	-6.468725e-03	-3.663065e-02	1.301869e-01	2.877501e-01	2.740619e-01	1.368817e-02
80            	3.266724e-02	-2.027103e-02	5.293827e-02	2.260180e-02	4.966695e-03	1.763510e-02	-6.334203e-03	-3.660465e-02	1.302203e-01	2.880282e-01	2.742344e-01	1.379379e-02
81            	3.296255e-02	-2.012233e-02	5.308488e-02	2.236515e-02	5.008391e-03	1.735676e-02	-6.174184e-03	-3.660360e-02	1.302614e-01	2.882850e-01	2.744039e-01	1.388113e-02
82            	3.321550e-02	-2.001255e-02	5.322805e-02	2.207905e-02	5.044445e-03	1.703460e-02	-5.995078e-03	-3.662030e-02	1.302986e-01	2.884966e-01	2.745469e-01	1.394970e-02
83            	3.344221e-02	-1.992328e-02	5.336549e-02	2.178125e-02	5.077153e-03	1.670410e-02	-5.813474e-03	-3.664438e-02	1.303380e-01	2.886848e-01	2.746804e-01	1.400444e-02
84            	3.365171e-02	-1.985070e-02	5.350240e-02	2.146908e-02	5.107492e-03	1.636159e-02	-5.627050e-03	-3.667655e-02	1.303749e-01	2.888454e-01	2.747976e-01	1.404777e-02
85            	3.384552e-02	-1.980026e-02	5.364579e-02	2.112760e-02	5.135536e-03	1.599206e-02	-5.428263e-03	-3.672303e-02	1.304083e-01	2.889783e-01	2.748975e-01	1.408083e-02
86            	3.402192e-02	-1.978176e-02	5.380368e-02	2.072536e-02	5.160940e-03	1.556442e-02	-5.201742e-03	-3.679272e-02	1.304264e-01	2.890601e-01	2.749565e-01	1.410362e-02
87            	3.416540e-02	-1.979854e-02	5.396393e-02	2.027033e-02	5.181161e-03	1.508917e-02	-4.954003e-03	-3.688123e-02	1.304244e-01	2.890733e-01	2.749610e-01	1.411228e-02
88            	3.426971e-02	-1.984367e-02	5.411339e-02	1.977388e-02	5.195463e-03	1.457842e-02	-4.691480e-03	-3.697853e-02	1.303684e-01	2.889488e-01	2.748427e-01	1.410602e-02
89            	3.432014e-02	-1.992255e-02	5.424268e-02	1.924784e-02	5.201752e-03	1.404609e-02	-4.422167e-03	-3.708261e-02	1.302765e-01	2.887137e-01	2.746334e-01	1.408029e-02
90            	3.431088e-02	-2.002609e-02	5.433697e-02	1.872191e-02	5.199527e-03	1.352238e-02	-4.161425e-03	-3.718153e-02	1.301522e-01	2.883713e-01	2.743378e-01	1.403349e-02
91            	3.423105e-02	-2.014392e-02	5.437497e-02	1.823487e-02	5.187193e-03	1.304768e-02	-3.930243e-03	-3.725944e-02	1.299879e-01	2.879002e-01	2.739380e-01	1.396224e-02
92            	3.409245e-02	-2.024926e-02	5.434172e-02	1.783920e-02	5.166374e-03	1.267283e-02	-3.753228e-03	-3.729549e-02	1.297674e-01	2.872763e-01	2.734055e-01	1.387080e-02
93            	3.390030e-02	-2.032939e-02	5.422969e-02	1.756420e-02	5.137808e-03	1.242639e-02	-3.644290e-03	-3.727954e-02	1.294876e-01	2.864975e-01	2.727364e-01	1.376115e-02
94            	3.368703e-02	-2.036200e-02	5.404903e-02	1.743307e-02	5.106264e-03	1.232681e-02	-3.610273e-03	-3.720552e-02	1.291451e-01	2.855788e-01	2.719345e-01	1.364427e-02
95            	3.348370e-02	-2.033749e-02	5.382120e-02	1.743482e-02	5.076158e-03	1.235866e-02	-3.641252e-03	-3.707934e-02	1.287376e-01	2.845383e-01	2.710068e-01	1.353154e-02
96            	3.331603e-02	-2.025018e-02	5.356621e-02	1.754671e-02	5.051186e-03	1.249552e-02	-3.722169e-03	-3.690819e-02	1.282569e-01	2.833797e-01	2.699467e-01	1.343293e-02
97            	3.318625e-02	-2.010823e-02	5.329448e-02	1.773280e-02	5.031711e-03	1.270109e-02	-3.834690e-03	-3.670136e-02	1.276931e-01	2.820894e-01	2.687378e-01	1.335161e-02
98            	3.310004e-02	-1.991490e-02	5.301494e-02	1.797024e-02	5.018425e-03	1.295181e-02	-3.966693e-03	-3.646492e-02	1.270424e-01	2.806667e-01	2.673757e-01	1.329100e-02
99            	3.307651e-02	-1.966985e-02	5.274636e-02	1.823329e-02	5.014124e-03	1.321916e-02	-4.102520e-03	-3.620811e-02	1.263038e-01	2.791246e-01	2.658661e-01	1.325846e-02
100           	3.313462e-02	-1.937194e-02	5.250655e-02	1.850651e-02	5.021476e-03	1.348504e-02	-4.231780e-03	-3.593925e-02	1.254907e-01	2.775023e-01	2.642418e-01	1.326048e-02
101           	3.328181e-02	-1.902365e-02	5.230546e-02	1.878134e-02	5.041512e-03	1.373983e-02	-4.349157e-03	-3.566456e-02	1.246197e-01	2.758379e-01	2.625386e-01	1.329924e-02
102           	3.352400e-02	-1.862384e-02	5.214784e-02	1.906256e-02	5.075073e-03	1.398748e-02	-4.456204e-03	-3.538584e-02	1.237111e-01	2.741735e-01	2.607978e-01	1.337564e-02
103           	3.386376e-02	-1.817999e-02	5.204375e-02	1.934506e-02	5.122582e-03	1.422247e-02	-4.549946e-03	-3.511187e-02	1.227969e-01	2.725704e-01	2.590821e-01	1.348829e-02
104           	3.430410e-02	-1.770151e-02	5.200561e-02	1.961533e-02	5.184465e-03	1.443086e-02	-4.623199e-03	-3.485356e-02	1.219074e-01	2.710865e-01	2.574507e-01	1.363583e-02
105           	3.484790e-02	-1.719788e-02	5.204578e-02	1.985151e-02	5.261101e-03	1.459041e-02	-4.664653e-03	-3.462183e-02	1.210621e-01	2.697580e-01	2.559411e-01	1.381695e-02
106           	3.548363e-02	-1.667985e-02	5.216349e-02	2.003960e-02	5.350805e-03	1.468880e-02	-4.668998e-03	-3.442167e-02	1.202743e-01	2.686000e-01	2.545743e-01	1.402572e-02
107           	3.617777e-02	-1.615645e-02	5.233422e-02	2.019314e-02	5.448697e-03	1.474444e-02	-4.647874e-03	-3.424533e-02	1.195528e-01	2.676039e-01	2.533547e-01	1.424918e-02
108           	3.689193e-02	-1.563893e-02	5.253086e-02	2.033308e-02	5.549335e-03	1.478374e-02	-4.617203e-03	-3.408490e-02	1.189117e-01	2.667696e-01	2.522965e-01	1.447308e-02
109           	3.760748e-02	-1.512662e-02	5.273410e-02	2.047981e-02	5.650189e-03	1.482963e-02	-4.589718e-03	-3.393036e-02	1.183486e-01	2.660772e-01	2.513872e-01	1.468999e-02
110           	3.829880e-02	-1.463226e-02	5.293106e-02	2.063323e-02	5.747623e-03	1.488560e-02	-4.568991e-03	-3.378166e-02	1.178689e-01	2.655185e-01	2.506281e-01	1.489037e-02
111           	3.894570e-02	-1.416315e-02	5.310886e-02	2.079489e-02	5.838870e-03	1.495602e-02	-4.558572e-03	-3.363600e-02	1.174695e-01	2.650737e-01	2.500063e-01	1.506740e-02
112           	3.954187e-02	-1.372607e-02	5.326795e-02	2.095106e-02	5.923013e-03	1.502805e-02	-4.552516e-03	-3.349701e-02	1.171432e-01	2.647244e-01	2.495054e-01	1.521902e-02
113           	4.008862e-02	-1.332223e-02	5.341084e-02	2.109412e-02	6.000176e-03	1.509394e-02	-4.546883e-03	-3.336653e-02	1.168845e-01	2.644611e-01	2.491151e-01	1.534607e-02
114           	4.059030e-02	-1.295839e-02	5.354869e-02	2.119599e-02	6.071000e-03	1.512499e-02	-4.526995e-03	-3.325354e-02	1.166854e-01	2.642726e-01	2.488217e-01	1.545091e-02
115           	4.104263e-02	-1.263716e-02	5.367979e-02	2.125256e-02	6.134881e-03	1.511768e-02	-4.491398e-03	-3.315847e-02	1.165402e-01	2.641472e-01	2.486138e-01	1.553340e-02
116           	4.143822e-02	-1.236361e-02	5.380184e-02	2.125278e-02	6.190764e-03	1.506201e-02	-4.435625e-03	-3.308273e-02	1.164368e-01	2.640592e-01	2.484664e-01	1.559276e-02
117           	4.178247e-02	-1.213847e-02	5.392094e-02	2.118596e-02	6.239422e-03	1.494654e-02	-4.353557e-03	-3.302971e-02	1.163642e-01	2.639946e-01	2.483615e-01	1.563309e-02
118           	4.208068e-02	-1.195994e-02	5.404063e-02	2.104149e-02	6.281573e-03	1.475991e-02	-4.239170e-03	-3.300029e-02	1.163019e-01	2.639212e-01	2.482625e-01	1.565876e-02
119           	4.233897e-02	-1.182484e-02	5.416381e-02	2.082194e-02	6.318069e-03	1.450388e-02	-4.092903e-03	-3.299433e-02	1.162419e-01	2.638324e-01	2.481581e-01	1.567437e-02
120           	4.256414e-02	-1.172165e-02	5.428579e-02	2.054887e-02	6.349825e-03	1.419904e-02	-3.924609e-03	-3.300372e-02	1.161734e-01	2.637151e-01	2.480309e-01	1.568422e-02
121           	4.276080e-02	-1.164488e-02	5.440568e-02	2.023238e-02	6.377504e-03	1.385488e-02	-3.738688e-03	-3.302528e-02	1.160892e-01	2.635618e-01	2.478701e-01	1.569169e-02
122           	4.292906e-02	-1.158691e-02	5.451596e-02	1.988740e-02	6.401082e-03	1.348631e-02	-3.542616e-03	-3.305144e-02	1.159773e-01	2.633512e-01	2.476529e-01	1.569832e-02
123           	4.307543e-02	-1.154785e-02	5.462328e-02	1.951144e-02	6.421497e-03	1.308994e-02	-3.334221e-03	-3.308556e-02	1.158411e-01	2.630968e-01	2.473895e-01	1.570725e-02
124           	4.320415e-02	-1.152432e-02	5.472847e-02	1.910061e-02	6.439333e-03	1.266128e-02	-3.110973e-03	-3.312639e-02	1.156663e-01	2.627744e-01	2.470535e-01	1.572086e-02
125           	4.332190e-02	-1.152001e-02	5.484191e-02	1.864415e-02	6.455577e-03	1.218857e-02	-2.866498e-03	-3.318096e-02	1.154602e-01	2.624034e-01	2.466620e-01	1.574148e-02
126           	4.343225e-02	-1.153740e-02	5.496966e-02	1.813491e-02	6.470639e-03	1.166427e-02	-2.596815e-03	-3.325353e-02	1.152273e-01	2.619940e-01	2.462243e-01	1.576974e-02
127           	4.354428e-02	-1.158036e-02	5.512464e-02	1.755914e-02	6.485810e-03	1.107333e-02	-2.293760e-03	-3.335250e-02	1.149745e-01	2.615650e-01	2.457570e-01	1.580801e-02
128           	4.363954e-02	-1.165439e-02	5.529392e-02	1.692773e-02	6.498489e-03	1.042924e-02	-1.965375e-03	-3.347416e-02	1.147090e-01	2.611155e-01	2.452667e-01	1.584880e-02
129           	4.370313e-02	-1.176776e-02	5.547089e-02	1.624610e-02	6.506565e-03	9.739531e-03	-1.616483e-03	-3.361933e-02	1.144427e-01	2.606573e-01	2.447713e-01	1.588593e-02
130           	4.371007e-02	-1.192039e-02	5.563046e-02	1.554987e-02	6.506501e-03	9.043373e-03	-1.268436e-03	-3.377542e-02	1.141901e-01	2.601994e-01	2.442898e-01	1.590958e-02
131           	4.365900e-02	-1.211221e-02	5.577121e-02	1.485075e-02	6.498096e-03	8.352657e-03	-9.272808e-04	-3.394171e-02	1.139628e-01	2.597610e-01	2.438433e-01	1.591768e-02
132           	4.355504e-02	-1.233813e-02	5.589317e-02	1.416064e-02	6.482185e-03	7.678456e-03	-5.981357e-04	-3.411565e-02	1.137691e-01	2.593592e-01	2.434487e-01	1.591053e-02
133           	4.339696e-02	-1.259265e-02	5.598961e-02	1.350109e-02	6.458705e-03	7.042384e-03	-2.918394e-04	-3.429113e-02	1.136216e-01	2.590159e-01	2.431296e-01	1.588631e-02
134           	4.318183e-02	-1.287645e-02	5.605829e-02	1.287202e-02	6.427333e-03	6.444685e-03	-8.676160e-06	-3.446737e-02	1.135227e-01	2.587320e-01	2.428887e-01	1.584332e-02
135           	4.291251e-02	-1.318062e-02	5.609312e-02	1.229330e-02	6.388453e-03	5.904847e-03	2.418028e-04	-3.463687e-02	1.134753e-01	2.585140e-01	2.427323e-01	1.578166e-02
136           	4.259601e-02	-1.349895e-02	5.609496e-02	1.177144e-02	6.343038e-03	5.428401e-03	4.573181e-04	-3.479695e-02	1.134801e-01	2.583670e-01	2.426636e-01	1.570339e-02
137           	4.225820e-02	-1.381579e-02	5.607398e-02	1.130736e-02	6.294721e-03	5.012635e-03	6.410427e-04	-3.494489e-02	1.135252e-01	2.582848e-01	2.426676e-01	1.561719e-02
138           	4.191203e-02	-1.412553e-02	5.603757e-02	1.089374e-02	6.245367e-03	4.648376e-03	7.984952e-04	-3.508155e-02	1.136032e-01	2.582616e-01	2.427340e-01	1.552763e-02
139           	4.158190e-02	-1.442178e-02	5.600368e-02	1.050760e-02	6.198430e-03	4.309169e-03	9.446307e-04	-3.521273e-02	1.136989e-01	2.582840e-01	2.428408e-01	1.544311e-02
140           	4.127051e-02	-1.470503e-02	5.597554e-02	1.013418e-02	6.154213e-03	3.979965e-03	1.087124e-03	-3.534028e-02	1.138018e-01	2.583344e-01	2.429691e-01	1.536537e-02
141           	4.100046e-02	-1.497238e-02	5.597283e-02	9.746790e-03	6.115834e-03	3.630957e-03	1.242439e-03	-3.547261e-02	1.139019e-01	2.584085e-01	2.431062e-01	1.530229e-02
142           	4.078406e-02	-1.522049e-02	5.600455e-02	9.331924e-03	6.085116e-03	3.246809e-03	1.419153e-03	-3.561252e-02	1.139873e-01	2.584921e-01	2.432334e-01	1.525869e-02
143           	4.063600e-02	-1.544335e-02	5.607936e-02	8.880049e-03	6.064137e-03	2.815911e-03	1.624113e-03	-3.576135e-02	1.140445e-01	2.585686e-01	2.433288e-01	1.523985e-02
144           	4.055469e-02	-1.564045e-02	5.619514e-02	8.387072e-03	6.052659e-03	2.334413e-03	1.859123e-03	-3.591780e-02	1.140626e-01	2.586158e-01	2.433705e-01	1.524531e-02
145           	4.053638e-02	-1.581044e-02	5.634682e-02	7.858936e-03	6.050171e-03	1.808765e-03	2.120703e-03	-3.607863e-02	1.140384e-01	2.586230e-01	2.433499e-01	1.527315e-02
146           	4.056821e-02	-1.596050e-02	5.652871e-02	7.287113e-03	6.054881e-03	1.232232e-03	2.411324e-03	-3.624460e-02	1.139650e-01	2.585677e-01	2.432489e-01	1.531888e-02
147           	4.064477e-02	-1.608921e-02	5.673398e-02	6.683689e-03	6.066188e-03	6.175010e-04	2.724343e-03	-3.641160e-02	1.138436e-01	2.584479e-01	2.430675e-01	1.538034e-02
148           	4.076192e-02	-1.619427e-02	5.695619e-02	6.060368e-03	6.083578e-03	-2.320986e-05	3.053394e-03	-3.657523e-02	1.136758e-01	2.582624e-01	2.428070e-01	1.545536e-02
149           	4.091168e-02	-1.627116e-02	5.718284e-02	5.440191e-03	6.105861e-03	-6.656696e-04	3.385765e-03	-3.672700e-02	1.134644e-01	2.580089e-01	2.424689e-01	1.554007e-02
150           	4.108884e-02	-1.631111e-02	5.739995e-02	4.851450e-03	6.132283e-03	-1.280833e-03	3.706558e-03	-3.685553e-02	1.132102e-01	2.576835e-01	2.420519e-01	1.563151e-02
151           	4.129616e-02	-1.630912e-02	5.760528e-02	4.306915e-03	6.163164e-03	-1.856248e-03	4.009706e-03	-3.695720e-02	1.129198e-01	2.572982e-01	2.415689e-01	1.572930e-02
152           	4.153940e-02	-1.626336e-02	5.780276e-02	3.806130e-03	6.199348e-03	-2.393218e-03	4.296283e-03	-3.703306e-02	1.125988e-01	2.568649e-01	2.410312e-01	1.583366e-02
153           	4.181328e-02	-1.618015e-02	5.799343e-02	3.345562e-03	6.240037e-03	-2.894475e-03	4.567256e-03	-3.708679e-02	1.122636e-01	2.564092e-01	2.404682e-01	1.594100e-02
154           	4.211269e-02	-1.606108e-02	5.817377e-02	2.927293e-03	6.284430e-03	-3.357137e-03	4.820783e-03	-3.711742e-02	1.119197e-01	2.559354e-01	2.398874e-01	1.604797e-02
155           	4.243605e-02	-1.590750e-02	5.834355e-02	2.558850e-03	6.332251e-03	-3.773401e-03	5.052826e-03	-3.712553e-02	1.115818e-01	2.554697e-01	2.393166e-01	1.615306e-02
156           	4.277797e-02	-1.572419e-02	5.850216e-02	2.238639e-03	6.382802e-03	-4.144163e-03	5.263483e-03	-3.711317e-02	1.112559e-01	2.550192e-01	2.387655e-01	1.625374e-02
157           	4.313004e-02	-1.551039e-02	5.864042e-02	1.985724e-03	6.434854e-03	-4.449131e-03	5.441992e-03	-3.707541e-02	1.109508e-01	2.545953e-01	2.382484e-01	1.634682e-02
158           	4.348905e-02	-1.526607e-02	5.875513e-02	1.796388e-03	6.487974e-03	-4.691586e-03	5.589780e-03	-3.701060e-02	1.106562e-01	2.541748e-01	2.377436e-01	1.643124e-02
159           	4.385338e-02	-1.498587e-02	5.883925e-02	1.687040e-03	6.541976e-03	-4.854936e-03	5.698456e-03	-3.691256e-02	1.103693e-01	2.537526e-01	2.372456e-01	1.650705e-02
160           	4.422349e-02	-1.467197e-02	5.889547e-02	1.653392e-03	6.596895e-03	-4.943502e-03	5.770198e-03	-3.678372e-02	1.100868e-01	2.533249e-01	2.367492e-01	1.657565e-02
161           	4.459664e-02	-1.433277e-02	5.892941e-02	1.686663e-03	6.652298e-03	-4.965635e-03	5.808967e-03	-3.663109e-02	1.098160e-01	2.529064e-01	2.362692e-01	1.663721e-02
162           	4.496302e-02	-1.398307e-02	5.894609e-02	1.763323e-03	6.706759e-03	-4.943437e-03	5.825098e-03	-3.646458e-02	1.095584e-01	2.524962e-01	2.358065e-01	1.668970e-02
163           	4.531055e-02	-1.363665e-02	5.894720e-02	1.870492e-03	6.758476e-03	-4.887984e-03	5.823230e-03	-3.629193e-02	1.093221e-01	2.521058e-01	2.353749e-01	1.673081e-02
164           	4.562116e-02	-1.330523e-02	5.892639e-02	1.991904e-03	6.804897e-03	-4.812992e-03	5.808945e-03	-3.611581e-02	1.090978e-01	2.517087e-01	2.349522e-01	1.675651e-02
165           	4.587990e-02	-1.300096e-02	5.888087e-02	2.126397e-03	6.843896e-03	-4.717499e-03	5.780698e-03	-3.594092e-02	1.088975e-01	2.513217e-01	2.345584e-01	1.676331e-02
166           	4.606222e-02	-1.274083e-02	5.880305e-02	2.267497e-03	6.871905e-03	-4.604407e-03	5.738156e-03	-3.577194e-02	1.087281e-01	2.509453e-01	2.342008e-01	1.674450e-02
167           	4.615887e-02	-1.253671e-02	5.869557e-02	2.401383e-03	6.887442e-03	-4.486059e-03	5.686751e-03	-3.561614e-02	1.085961e-01	2.505882e-01	2.338903e-01	1.669798e-02
168           	4.616419e-02	-1.239427e-02	5.855846e-02	2.518310e-03	6.889663e-03	-4.371353e-03	5.630508e-03	-3.547637e-02	1.084940e-01	2.502349e-01	2.336115e-01	1.662342e-02