# Force and moment coefficients
# dragDir     : (1.000000e+00 0.000000e+00 0.000000e+00)
# sideDir     : (0.000000e+00 1.000000e+00 0.000000e+00)
# liftDir     : (0.000000e+00 0.000000e+00 1.000000e+00)
# rollAxis    : (1.000000e+00 0.000000e+00 0.000000e+00)
# pitchAxis   : (0.000000e+00 1.000000e+00 0.000000e+00)
# yawAxis     : (0.000000e+00 0.000000e+00 1.000000e+00)
# magUInf     : 1.750000e+01
# lRef        : 1.854000e+00
# Aref        : 6.450000e-01
# CofR        : (1.000000e+00 0.000000e+00 0.000000e+00)
#
# Time        	Cd            	Cd(f)         	Cd(r)         	Cl            	Cl(f)         	Cl(r)         	CmPitch       	CmRoll        	CmYaw         	Cs            	Cs(f)         	Cs(r)         
1801          	5.050568e-01	-7.488640e-02	5.799432e-01	-1.754295e-02	-6.153186e-02	4.398891e-02	-5.276039e-02	-3.274148e-01	-7.959936e-01	1.222123e+00	-1.849322e-01	1.407055e+00
1802          	5.044200e-01	-7.520065e-02	5.796207e-01	-1.758050e-02	-6.197746e-02	4.439696e-02	-5.318721e-02	-3.274107e-01	-7.960944e-01	1.222229e+00	-1.849799e-01	1.407209e+00
1803          	5.037938e-01	-7.551792e-02	5.793117e-01	-1.762971e-02	-6.245315e-02	4.482344e-02	-5.363830e-02	-3.274148e-01	-7.961976e-01	1.222328e+00	-1.850335e-01	1.407362e+00
1804          	5.031768e-01	-7.583520e-02	5.790120e-01	-1.768002e-02	-6.294114e-02	4.526112e-02	-5.410113e-02	-3.274236e-01	-7.963036e-01	1.222417e+00	-1.850949e-01	1.407512e+00
1805          	5.025778e-01	-7.616722e-02	5.787451e-01	-1.779745e-02	-6.351903e-02	4.572158e-02	-5.462030e-02	-3.274561e-01	-7.964304e-01	1.222530e+00	-1.851656e-01	1.407695e+00
1806          	5.019958e-01	-7.651018e-02	5.785060e-01	-1.800243e-02	-6.419603e-02	4.619360e-02	-5.519482e-02	-3.275081e-01	-7.965710e-01	1.222643e+00	-1.852495e-01	1.407893e+00
1807          	5.014352e-01	-7.686677e-02	5.783019e-01	-1.831525e-02	-6.499905e-02	4.668381e-02	-5.584143e-02	-3.275844e-01	-7.967281e-01	1.222758e+00	-1.853491e-01	1.408107e+00
1808          	5.008931e-01	-7.722341e-02	5.781165e-01	-1.870286e-02	-6.587283e-02	4.716998e-02	-5.652141e-02	-3.276700e-01	-7.968920e-01	1.222841e+00	-1.854715e-01	1.408312e+00
1809          	5.003592e-01	-7.758054e-02	5.779397e-01	-1.914035e-02	-6.680189e-02	4.766154e-02	-5.723172e-02	-3.277601e-01	-7.970561e-01	1.222890e+00	-1.856111e-01	1.408501e+00
1810          	4.998251e-01	-7.793038e-02	5.777555e-01	-1.960621e-02	-6.775022e-02	4.814401e-02	-5.794711e-02	-3.278430e-01	-7.972053e-01	1.222871e+00	-1.857698e-01	1.408641e+00
1811          	4.992896e-01	-7.827482e-02	5.775644e-01	-2.008086e-02	-6.869556e-02	4.861469e-02	-5.865513e-02	-3.279196e-01	-7.973443e-01	1.222811e+00	-1.859390e-01	1.408750e+00
1812          	4.987570e-01	-7.861049e-02	5.773675e-01	-2.057978e-02	-6.963170e-02	4.905192e-02	-5.934181e-02	-3.279890e-01	-7.974648e-01	1.222696e+00	-1.861167e-01	1.408813e+00
1813          	4.982208e-01	-7.894770e-02	5.771685e-01	-2.110274e-02	-7.055595e-02	4.945321e-02	-6.000458e-02	-3.280581e-01	-7.975710e-01	1.222551e+00	-1.862956e-01	1.408846e+00
1814          	4.976811e-01	-7.926546e-02	5.769466e-01	-2.157730e-02	-7.138977e-02	4.981247e-02	-6.060112e-02	-3.281060e-01	-7.976562e-01	1.222353e+00	-1.864796e-01	1.408833e+00
1815          	4.971239e-01	-7.956957e-02	5.766935e-01	-2.198637e-02	-7.212689e-02	5.014051e-02	-6.113370e-02	-3.281315e-01	-7.977109e-01	1.222107e+00	-1.866576e-01	1.408764e+00
1816          	4.965531e-01	-7.984466e-02	5.763978e-01	-2.226684e-02	-7.271173e-02	5.044489e-02	-6.157831e-02	-3.281212e-01	-7.977258e-01	1.221810e+00	-1.868207e-01	1.408631e+00
1817          	4.959692e-01	-8.009597e-02	5.760652e-01	-2.241682e-02	-7.314380e-02	5.072698e-02	-6.193539e-02	-3.280806e-01	-7.977127e-01	1.221484e+00	-1.869709e-01	1.408455e+00
1818          	4.953706e-01	-8.032297e-02	5.756936e-01	-2.242150e-02	-7.342222e-02	5.100073e-02	-6.221148e-02	-3.280083e-01	-7.976659e-01	1.221134e+00	-1.870989e-01	1.408233e+00
1819          	4.947455e-01	-8.053707e-02	5.752825e-01	-2.229736e-02	-7.357745e-02	5.128010e-02	-6.242877e-02	-3.279098e-01	-7.975834e-01	1.220769e+00	-1.871990e-01	1.407968e+00
1820          	4.941022e-01	-8.074024e-02	5.748425e-01	-2.208652e-02	-7.365939e-02	5.157287e-02	-6.261613e-02	-3.277914e-01	-7.974621e-01	1.220390e+00	-1.872672e-01	1.407657e+00
1821          	4.934429e-01	-8.093188e-02	5.743748e-01	-2.172965e-02	-7.359691e-02	5.186726e-02	-6.273209e-02	-3.276533e-01	-7.973178e-01	1.220031e+00	-1.873024e-01	1.407333e+00
1822          	4.927725e-01	-8.112617e-02	5.738986e-01	-2.130605e-02	-7.346835e-02	5.216230e-02	-6.281532e-02	-3.275124e-01	-7.971508e-01	1.219708e+00	-1.872968e-01	1.407005e+00
1823          	4.920706e-01	-8.133637e-02	5.734070e-01	-2.081989e-02	-7.329199e-02	5.247210e-02	-6.288204e-02	-3.273717e-01	-7.969543e-01	1.219428e+00	-1.872405e-01	1.406668e+00
1824          	4.913365e-01	-8.157475e-02	5.729113e-01	-2.031670e-02	-7.311711e-02	5.280042e-02	-6.295877e-02	-3.272430e-01	-7.967311e-01	1.219209e+00	-1.871266e-01	1.406336e+00
1825          	4.905598e-01	-8.184357e-02	5.724034e-01	-1.972136e-02	-7.287072e-02	5.314937e-02	-6.301005e-02	-3.271235e-01	-7.964995e-01	1.219085e+00	-1.869569e-01	1.406042e+00
1826          	4.897348e-01	-8.216010e-02	5.718949e-01	-1.911746e-02	-7.264188e-02	5.352442e-02	-6.308315e-02	-3.270275e-01	-7.962498e-01	1.219055e+00	-1.867222e-01	1.405777e+00
1827          	4.888423e-01	-8.252852e-02	5.713708e-01	-1.848526e-02	-7.242123e-02	5.393597e-02	-6.317860e-02	-3.269497e-01	-7.959791e-01	1.219113e+00	-1.864227e-01	1.405535e+00
1828          	4.878934e-01	-8.294128e-02	5.708346e-01	-1.779809e-02	-7.217039e-02	5.437231e-02	-6.327135e-02	-3.268880e-01	-7.957076e-01	1.219272e+00	-1.860718e-01	1.405343e+00
1829          	4.868888e-01	-8.339309e-02	5.702819e-01	-1.704725e-02	-7.188011e-02	5.483286e-02	-6.335648e-02	-3.268375e-01	-7.954310e-01	1.219512e+00	-1.856751e-01	1.405187e+00
1830          	4.858428e-01	-8.387649e-02	5.697192e-01	-1.625865e-02	-7.158043e-02	5.532178e-02	-6.345111e-02	-3.267979e-01	-7.951550e-01	1.219823e+00	-1.852437e-01	1.405066e+00
1831          	4.847610e-01	-8.438832e-02	5.691493e-01	-1.544182e-02	-7.128719e-02	5.584537e-02	-6.356628e-02	-3.267688e-01	-7.948867e-01	1.220196e+00	-1.847889e-01	1.404985e+00
1832          	4.836758e-01	-8.491037e-02	5.685862e-01	-1.459815e-02	-7.099685e-02	5.639870e-02	-6.369778e-02	-3.267483e-01	-7.946389e-01	1.220619e+00	-1.843295e-01	1.404948e+00
1833          	4.825905e-01	-8.544241e-02	5.680329e-01	-1.375659e-02	-7.074490e-02	5.698831e-02	-6.386660e-02	-3.267377e-01	-7.944079e-01	1.221075e+00	-1.838703e-01	1.404945e+00
1834          	4.815484e-01	-8.596478e-02	5.675132e-01	-1.295107e-02	-7.055339e-02	5.760232e-02	-6.407785e-02	-3.267390e-01	-7.941967e-01	1.221549e+00	-1.834221e-01	1.404971e+00
1835          	4.805571e-01	-8.646442e-02	5.670215e-01	-1.214763e-02	-7.037920e-02	5.823158e-02	-6.430539e-02	-3.267430e-01	-7.940123e-01	1.222029e+00	-1.829975e-01	1.405027e+00
1836          	4.796507e-01	-8.692810e-02	5.665788e-01	-1.136891e-02	-7.023394e-02	5.886503e-02	-6.454949e-02	-3.267534e-01	-7.938487e-01	1.222501e+00	-1.825983e-01	1.405099e+00
1837          	4.788255e-01	-8.735627e-02	5.661818e-01	-1.062299e-02	-7.011217e-02	5.948918e-02	-6.480067e-02	-3.267690e-01	-7.937097e-01	1.222953e+00	-1.822330e-01	1.405186e+00
1838          	4.781031e-01	-8.774068e-02	5.658437e-01	-9.922233e-03	-7.001227e-02	6.009004e-02	-6.505116e-02	-3.267922e-01	-7.935974e-01	1.223383e+00	-1.819060e-01	1.405289e+00
1839          	4.774768e-01	-8.808952e-02	5.655663e-01	-9.310090e-03	-6.996198e-02	6.065189e-02	-6.530693e-02	-3.268279e-01	-7.935145e-01	1.223778e+00	-1.816254e-01	1.405404e+00
1840          	4.769466e-01	-8.840474e-02	5.653513e-01	-8.771314e-03	-6.993637e-02	6.116505e-02	-6.555071e-02	-3.268780e-01	-7.934598e-01	1.224147e+00	-1.813865e-01	1.405533e+00
1841          	4.764949e-01	-8.869596e-02	5.651908e-01	-8.319651e-03	-6.994316e-02	6.162350e-02	-6.578333e-02	-3.269434e-01	-7.934361e-01	1.224492e+00	-1.811902e-01	1.405682e+00
1842          	4.761091e-01	-8.897287e-02	5.650820e-01	-7.976008e-03	-6.999845e-02	6.202245e-02	-6.601045e-02	-3.270274e-01	-7.934308e-01	1.224808e+00	-1.810266e-01	1.405835e+00
1843          	4.757560e-01	-8.925229e-02	5.650082e-01	-7.751162e-03	-7.012369e-02	6.237253e-02	-6.624811e-02	-3.271303e-01	-7.934418e-01	1.225100e+00	-1.808916e-01	1.405992e+00
1844          	4.754202e-01	-8.953650e-02	5.649567e-01	-7.624753e-03	-7.029556e-02	6.267080e-02	-6.648318e-02	-3.272466e-01	-7.934532e-01	1.225363e+00	-1.807718e-01	1.406135e+00
1845          	4.750768e-01	-8.983336e-02	5.649102e-01	-7.564284e-03	-7.049797e-02	6.293368e-02	-6.671582e-02	-3.273718e-01	-7.934647e-01	1.225608e+00	-1.806607e-01	1.406269e+00
1846          	4.747246e-01	-9.013588e-02	5.648604e-01	-7.548920e-03	-7.071290e-02	6.316398e-02	-6.693844e-02	-3.274982e-01	-7.934699e-01	1.225830e+00	-1.805548e-01	1.406385e+00
1847          	4.743541e-01	-9.045466e-02	5.648088e-01	-7.613767e-03	-7.098124e-02	6.336747e-02	-6.717435e-02	-3.276317e-01	-7.934744e-01	1.226040e+00	-1.804546e-01	1.406494e+00
1848          	4.739601e-01	-9.078033e-02	5.647405e-01	-7.683326e-03	-7.123381e-02	6.355048e-02	-6.739215e-02	-3.277604e-01	-7.934810e-01	1.226246e+00	-1.803582e-01	1.406604e+00
1849          	4.735472e-01	-9.111241e-02	5.646596e-01	-7.786593e-03	-7.149764e-02	6.371105e-02	-6.760435e-02	-3.278860e-01	-7.934893e-01	1.226443e+00	-1.802680e-01	1.406711e+00
1850          	4.731188e-01	-9.143506e-02	5.645539e-01	-7.839308e-03	-7.169063e-02	6.385132e-02	-6.777098e-02	-3.279945e-01	-7.935008e-01	1.226630e+00	-1.801858e-01	1.406816e+00
1851          	4.726775e-01	-9.176276e-02	5.644402e-01	-7.940612e-03	-7.189362e-02	6.395300e-02	-6.792331e-02	-3.281015e-01	-7.935210e-01	1.226817e+00	-1.801127e-01	1.406929e+00
1852          	4.722125e-01	-9.210283e-02	5.643153e-01	-8.077036e-03	-7.209715e-02	6.402011e-02	-6.805863e-02	-3.282091e-01	-7.935466e-01	1.227002e+00	-1.800454e-01	1.407048e+00
1853          	4.717284e-01	-9.245451e-02	5.641829e-01	-8.278007e-03	-7.231959e-02	6.404158e-02	-6.818059e-02	-3.283187e-01	-7.935711e-01	1.227180e+00	-1.799812e-01	1.407161e+00
1854          	4.712102e-01	-9.282126e-02	5.640314e-01	-8.523431e-03	-7.254974e-02	6.402631e-02	-6.828802e-02	-3.284263e-01	-7.935884e-01	1.227343e+00	-1.799170e-01	1.407260e+00
1855          	4.706746e-01	-9.319153e-02	5.638662e-01	-8.812265e-03	-7.278187e-02	6.396961e-02	-6.837574e-02	-3.285289e-01	-7.935935e-01	1.227483e+00	-1.798520e-01	1.407335e+00
1856          	4.701086e-01	-9.356669e-02	5.636753e-01	-9.108938e-03	-7.299987e-02	6.389093e-02	-6.844540e-02	-3.286210e-01	-7.935838e-01	1.227597e+00	-1.797854e-01	1.407382e+00
1857          	4.695239e-01	-9.394751e-02	5.634714e-01	-9.434689e-03	-7.322049e-02	6.378580e-02	-6.850315e-02	-3.287095e-01	-7.935548e-01	1.227686e+00	-1.797117e-01	1.407398e+00
1858          	4.689078e-01	-9.433716e-02	5.632450e-01	-9.752739e-03	-7.342746e-02	6.367473e-02	-6.855109e-02	-3.287911e-01	-7.935086e-01	1.227755e+00	-1.796313e-01	1.407386e+00
1859          	4.682776e-01	-9.472027e-02	5.629979e-01	-9.993717e-03	-7.356073e-02	6.356701e-02	-6.856387e-02	-3.288591e-01	-7.934502e-01	1.227821e+00	-1.795395e-01	1.407361e+00
1860          	4.676252e-01	-9.509487e-02	5.627201e-01	-1.012519e-02	-7.360846e-02	6.348327e-02	-6.854587e-02	-3.289075e-01	-7.933818e-01	1.227880e+00	-1.794416e-01	1.407322e+00
1861          	4.669630e-01	-9.545664e-02	5.624196e-01	-1.011006e-02	-7.354294e-02	6.343289e-02	-6.848792e-02	-3.289381e-01	-7.933151e-01	1.227961e+00	-1.793346e-01	1.407295e+00
1862          	4.662865e-01	-9.580360e-02	5.620901e-01	-9.913082e-03	-7.334220e-02	6.342911e-02	-6.838565e-02	-3.289469e-01	-7.932561e-01	1.228071e+00	-1.792206e-01	1.407292e+00
1863          	4.656138e-01	-9.612280e-02	5.617366e-01	-9.521902e-03	-7.298475e-02	6.346284e-02	-6.822380e-02	-3.289297e-01	-7.932006e-01	1.228203e+00	-1.790990e-01	1.407302e+00
1864          	4.649352e-01	-9.642333e-02	5.613585e-01	-8.971551e-03	-7.251670e-02	6.354515e-02	-6.803093e-02	-3.288909e-01	-7.931495e-01	1.228343e+00	-1.789783e-01	1.407321e+00
1865          	4.642640e-01	-9.670606e-02	5.609700e-01	-8.307764e-03	-7.197123e-02	6.366347e-02	-6.781735e-02	-3.288380e-01	-7.930933e-01	1.228480e+00	-1.788532e-01	1.407333e+00
1866          	4.635916e-01	-9.698737e-02	5.605790e-01	-7.590567e-03	-7.139951e-02	6.380894e-02	-6.760422e-02	-3.287832e-01	-7.930323e-01	1.228622e+00	-1.787215e-01	1.407343e+00
1867          	4.629294e-01	-9.726024e-02	5.601897e-01	-6.799037e-03	-7.076646e-02	6.396743e-02	-6.736694e-02	-3.287250e-01	-7.929618e-01	1.228773e+00	-1.785753e-01	1.407348e+00
1868          	4.622634e-01	-9.754176e-02	5.598052e-01	-5.981340e-03	-7.011497e-02	6.413363e-02	-6.712430e-02	-3.286735e-01	-7.928800e-01	1.228937e+00	-1.784113e-01	1.407349e+00
1869          	4.615959e-01	-9.782827e-02	5.594242e-01	-5.116490e-03	-6.942029e-02	6.430380e-02	-6.686204e-02	-3.286262e-01	-7.927829e-01	1.229114e+00	-1.782257e-01	1.407340e+00
1870          	4.609107e-01	-9.813578e-02	5.590465e-01	-4.254113e-03	-6.872445e-02	6.447034e-02	-6.659740e-02	-3.285911e-01	-7.926711e-01	1.229305e+00	-1.780185e-01	1.407324e+00
1871          	4.602139e-01	-9.846443e-02	5.586783e-01	-3.409803e-03	-6.803037e-02	6.462057e-02	-6.632547e-02	-3.285714e-01	-7.925474e-01	1.229513e+00	-1.777910e-01	1.407304e+00
1872          	4.595011e-01	-9.881828e-02	5.583194e-01	-2.640367e-03	-6.739441e-02	6.475405e-02	-6.607423e-02	-3.285688e-01	-7.924102e-01	1.229704e+00	-1.775584e-01	1.407262e+00
1873          	4.587770e-01	-9.918555e-02	5.579625e-01	-1.907560e-03	-6.677698e-02	6.486942e-02	-6.582320e-02	-3.285740e-01	-7.922600e-01	1.229867e+00	-1.773265e-01	1.407193e+00
1874          	4.580451e-01	-9.957112e-02	5.576162e-01	-1.252330e-03	-6.622270e-02	6.497037e-02	-6.559654e-02	-3.285936e-01	-7.921014e-01	1.229996e+00	-1.771036e-01	1.407099e+00
1875          	4.573078e-01	-9.996749e-02	5.572753e-01	-6.593239e-04	-6.572666e-02	6.506734e-02	-6.539700e-02	-3.286214e-01	-7.919363e-01	1.230065e+00	-1.769038e-01	1.406969e+00
1876          	4.565761e-01	-1.003713e-01	5.569474e-01	-1.485554e-04	-6.531626e-02	6.516771e-02	-6.524198e-02	-3.286594e-01	-7.917667e-01	1.230062e+00	-1.767356e-01	1.406798e+00
1877          	4.558533e-01	-1.007745e-01	5.566277e-01	2.958350e-04	-6.497804e-02	6.527388e-02	-6.512596e-02	-3.287011e-01	-7.916011e-01	1.229986e+00	-1.766082e-01	1.406594e+00
1878          	4.551653e-01	-1.011720e-01	5.563373e-01	6.271845e-04	-6.475380e-02	6.538098e-02	-6.506739e-02	-3.287547e-01	-7.914390e-01	1.229840e+00	-1.765190e-01	1.406359e+00
1879          	4.545095e-01	-1.015515e-01	5.560610e-01	9.135396e-04	-6.457245e-02	6.548599e-02	-6.502922e-02	-3.288063e-01	-7.912790e-01	1.229620e+00	-1.764690e-01	1.406089e+00
1880          	4.539047e-01	-1.019155e-01	5.558202e-01	1.096921e-03	-6.448471e-02	6.558163e-02	-6.503317e-02	-3.288679e-01	-7.911210e-01	1.229332e+00	-1.764550e-01	1.405787e+00
1881          	4.533371e-01	-1.022693e-01	5.556064e-01	1.177207e-03	-6.448069e-02	6.565789e-02	-6.506929e-02	-3.289378e-01	-7.909566e-01	1.228972e+00	-1.764707e-01	1.405443e+00
1882          	4.528135e-01	-1.026088e-01	5.554222e-01	1.199944e-03	-6.452003e-02	6.571998e-02	-6.512000e-02	-3.290155e-01	-7.907942e-01	1.228573e+00	-1.765078e-01	1.405081e+00
1883          	4.523215e-01	-1.029354e-01	5.552569e-01	1.160329e-03	-6.459911e-02	6.575944e-02	-6.517927e-02	-3.290962e-01	-7.906207e-01	1.228131e+00	-1.765552e-01	1.404686e+00
1884          	4.518697e-01	-1.032391e-01	5.551087e-01	1.118060e-03	-6.468246e-02	6.580052e-02	-6.524149e-02	-3.291739e-01	-7.904383e-01	1.227669e+00	-1.766037e-01	1.404273e+00
1885          	4.514461e-01	-1.035339e-01	5.549800e-01	1.011255e-03	-6.481933e-02	6.583058e-02	-6.532496e-02	-3.292569e-01	-7.902365e-01	1.227184e+00	-1.766445e-01	1.403829e+00
1886          	4.510406e-01	-1.038240e-01	5.548647e-01	9.226366e-04	-6.495796e-02	6.588060e-02	-6.541928e-02	-3.293443e-01	-7.900304e-01	1.226733e+00	-1.766637e-01	1.403397e+00
1887          	4.506462e-01	-1.041172e-01	5.547634e-01	8.210646e-04	-6.512473e-02	6.594580e-02	-6.553527e-02	-3.294403e-01	-7.898182e-01	1.226329e+00	-1.766535e-01	1.402983e+00
1888          	4.502483e-01	-1.044156e-01	5.546638e-01	7.572563e-04	-6.531309e-02	6.607034e-02	-6.569171e-02	-3.295397e-01	-7.896075e-01	1.225997e+00	-1.766090e-01	1.402606e+00
1889          	4.498507e-01	-1.047175e-01	5.545682e-01	7.323829e-04	-6.550382e-02	6.623620e-02	-6.587001e-02	-3.296428e-01	-7.894002e-01	1.225744e+00	-1.765280e-01	1.402272e+00
1890          	4.494375e-01	-1.050251e-01	5.544626e-01	8.129593e-04	-6.564937e-02	6.646233e-02	-6.605585e-02	-3.297439e-01	-7.892041e-01	1.225592e+00	-1.764079e-01	1.402000e+00
1891          	4.490165e-01	-1.053418e-01	5.543584e-01	9.905671e-04	-6.574614e-02	6.673671e-02	-6.624143e-02	-3.298501e-01	-7.890290e-01	1.225572e+00	-1.762431e-01	1.401815e+00
1892          	4.485718e-01	-1.056712e-01	5.542430e-01	1.315568e-03	-6.573887e-02	6.705444e-02	-6.639665e-02	-3.299571e-01	-7.888723e-01	1.225691e+00	-1.760269e-01	1.401718e+00
1893          	4.481233e-01	-1.060102e-01	5.541335e-01	1.737208e-03	-6.566630e-02	6.740351e-02	-6.653490e-02	-3.300718e-01	-7.887373e-01	1.225956e+00	-1.757592e-01	1.401715e+00
1894          	4.476627e-01	-1.063488e-01	5.540114e-01	2.273595e-03	-6.552157e-02	6.779516e-02	-6.665836e-02	-3.301801e-01	-7.886134e-01	1.226330e+00	-1.754484e-01	1.401778e+00
1895          	4.472142e-01	-1.066740e-01	5.538882e-01	2.958583e-03	-6.524744e-02	6.820602e-02	-6.672673e-02	-3.302811e-01	-7.885201e-01	1.226831e+00	-1.751047e-01	1.401935e+00
1896          	4.467932e-01	-1.069757e-01	5.537689e-01	3.753508e-03	-6.488729e-02	6.864080e-02	-6.676405e-02	-3.303723e-01	-7.884499e-01	1.227428e+00	-1.747360e-01	1.402164e+00
1897          	4.464007e-01	-1.072523e-01	5.536530e-01	4.633927e-03	-6.446335e-02	6.909728e-02	-6.678031e-02	-3.304526e-01	-7.883866e-01	1.228083e+00	-1.743450e-01	1.402428e+00
1898          	4.460421e-01	-1.075000e-01	5.535420e-01	5.619771e-03	-6.394635e-02	6.956612e-02	-6.675623e-02	-3.305210e-01	-7.883530e-01	1.228795e+00	-1.739554e-01	1.402751e+00
1899          	4.457356e-01	-1.077038e-01	5.534394e-01	6.725427e-03	-6.332512e-02	7.005055e-02	-6.668783e-02	-3.305716e-01	-7.883428e-01	1.229548e+00	-1.735688e-01	1.403117e+00
1900          	4.454655e-01	-1.078715e-01	5.533370e-01	7.918085e-03	-6.263965e-02	7.055773e-02	-6.659869e-02	-3.306043e-01	-7.883474e-01	1.230307e+00	-1.731941e-01	1.403501e+00
1901          	4.452591e-01	-1.079887e-01	5.532479e-01	9.223156e-03	-6.185738e-02	7.108054e-02	-6.646896e-02	-3.306183e-01	-7.883695e-01	1.231072e+00	-1.728334e-01	1.403906e+00
1902          	4.450956e-01	-1.080728e-01	5.531684e-01	1.058636e-02	-6.102971e-02	7.161607e-02	-6.632289e-02	-3.306206e-01	-7.884056e-01	1.231817e+00	-1.724969e-01	1.404314e+00
1903          	4.449680e-01	-1.081181e-01	5.530861e-01	1.206525e-02	-6.010229e-02	7.216754e-02	-6.613492e-02	-3.306021e-01	-7.884445e-01	1.232532e+00	-1.721786e-01	1.404710e+00
1904          	4.448833e-01	-1.081274e-01	5.530107e-01	1.362644e-02	-5.908084e-02	7.270728e-02	-6.589406e-02	-3.305691e-01	-7.884961e-01	1.233221e+00	-1.718858e-01	1.405106e+00
1905          	4.448430e-01	-1.080972e-01	5.529403e-01	1.527508e-02	-5.797449e-02	7.324958e-02	-6.561203e-02	-3.305187e-01	-7.885433e-01	1.233868e+00	-1.716091e-01	1.405478e+00
1906          	4.448387e-01	-1.080501e-01	5.528888e-01	1.692020e-02	-5.685801e-02	7.377821e-02	-6.531811e-02	-3.304694e-01	-7.885916e-01	1.234494e+00	-1.713443e-01	1.405839e+00
1907          	4.448630e-01	-1.079905e-01	5.528535e-01	1.859685e-02	-5.570284e-02	7.429969e-02	-6.500126e-02	-3.304220e-01	-7.886406e-01	1.235118e+00	-1.710814e-01	1.406200e+00
1908          	4.449021e-01	-1.079308e-01	5.528329e-01	2.026389e-02	-5.454790e-02	7.481180e-02	-6.467985e-02	-3.303819e-01	-7.886901e-01	1.235737e+00	-1.708217e-01	1.406558e+00
1909          	4.449663e-01	-1.078705e-01	5.528368e-01	2.188461e-02	-5.342972e-02	7.531433e-02	-6.437203e-02	-3.303536e-01	-7.887378e-01	1.236350e+00	-1.705627e-01	1.406913e+00
1910          	4.450487e-01	-1.078223e-01	5.528710e-01	2.339647e-02	-5.238934e-02	7.578581e-02	-6.408757e-02	-3.303467e-01	-7.887861e-01	1.236959e+00	-1.703066e-01	1.407266e+00
1911          	4.451497e-01	-1.077788e-01	5.529285e-01	2.484333e-02	-5.139440e-02	7.623773e-02	-6.381606e-02	-3.303536e-01	-7.888339e-01	1.237558e+00	-1.700546e-01	1.407613e+00
1912          	4.452610e-01	-1.077533e-01	5.530143e-01	2.619717e-02	-5.046143e-02	7.665860e-02	-6.356002e-02	-3.303838e-01	-7.888846e-01	1.238165e+00	-1.698021e-01	1.407967e+00
1913          	4.453806e-01	-1.077417e-01	5.531223e-01	2.748246e-02	-4.957963e-02	7.706209e-02	-6.332086e-02	-3.304320e-01	-7.889322e-01	1.238759e+00	-1.695526e-01	1.408312e+00
1914          	4.455101e-01	-1.077625e-01	5.532726e-01	2.858196e-02	-4.885994e-02	7.744190e-02	-6.315092e-02	-3.305176e-01	-7.889758e-01	1.239329e+00	-1.693115e-01	1.408640e+00
1915          	4.456598e-01	-1.077936e-01	5.534533e-01	2.956185e-02	-4.824113e-02	7.780297e-02	-6.302205e-02	-3.306234e-01	-7.890074e-01	1.239844e+00	-1.690853e-01	1.408929e+00
1916          	4.458369e-01	-1.078328e-01	5.536697e-01	3.040837e-02	-4.771691e-02	7.812528e-02	-6.292110e-02	-3.307512e-01	-7.890265e-01	1.240305e+00	-1.688739e-01	1.409179e+00
1917          	4.460446e-01	-1.078694e-01	5.539140e-01	3.114646e-02	-4.726319e-02	7.840965e-02	-6.283642e-02	-3.308917e-01	-7.890263e-01	1.240699e+00	-1.686767e-01	1.409376e+00
1918          	4.462858e-01	-1.079025e-01	5.541883e-01	3.175951e-02	-4.688708e-02	7.864659e-02	-6.276683e-02	-3.310454e-01	-7.890031e-01	1.241019e+00	-1.684936e-01	1.409513e+00
1919          	4.465665e-01	-1.079166e-01	5.544830e-01	3.227475e-02	-4.655730e-02	7.883205e-02	-6.269467e-02	-3.311998e-01	-7.889468e-01	1.241235e+00	-1.683294e-01	1.409564e+00
1920          	4.468859e-01	-1.079251e-01	5.548110e-01	3.262901e-02	-4.633868e-02	7.896768e-02	-6.265318e-02	-3.313681e-01	-7.888729e-01	1.241356e+00	-1.681947e-01	1.409551e+00
1921          	4.472450e-01	-1.079060e-01	5.551510e-01	3.290910e-02	-4.614463e-02	7.905373e-02	-6.259918e-02	-3.315285e-01	-7.887803e-01	1.241362e+00	-1.680994e-01	1.409461e+00
1922          	4.476536e-01	-1.078549e-01	5.555084e-01	3.311633e-02	-4.597918e-02	7.909551e-02	-6.253735e-02	-3.316817e-01	-7.886794e-01	1.241259e+00	-1.680498e-01	1.409309e+00
1923          	4.481186e-01	-1.077398e-01	5.558585e-01	3.338331e-02	-4.570327e-02	7.908658e-02	-6.239492e-02	-3.317991e-01	-7.885695e-01	1.241038e+00	-1.680504e-01	1.409089e+00
1924          	4.486400e-01	-1.075702e-01	5.562102e-01	3.365657e-02	-4.538043e-02	7.903701e-02	-6.220872e-02	-3.318902e-01	-7.884571e-01	1.240705e+00	-1.681048e-01	1.408809e+00
1925          	4.492234e-01	-1.073360e-01	5.565594e-01	3.398238e-02	-4.495039e-02	7.893277e-02	-6.194158e-02	-3.319477e-01	-7.883397e-01	1.240267e+00	-1.682062e-01	1.408473e+00
1926          	4.498542e-01	-1.070518e-01	5.569059e-01	3.434913e-02	-4.445789e-02	7.880702e-02	-6.163246e-02	-3.319789e-01	-7.882213e-01	1.239755e+00	-1.683439e-01	1.408099e+00
1927          	4.505266e-01	-1.067271e-01	5.572537e-01	3.475397e-02	-4.390550e-02	7.865947e-02	-6.128248e-02	-3.319904e-01	-7.881016e-01	1.239197e+00	-1.685032e-01	1.407700e+00
1928          	4.512294e-01	-1.063636e-01	5.575930e-01	3.523791e-02	-4.328003e-02	7.851793e-02	-6.089898e-02	-3.319783e-01	-7.879836e-01	1.238622e+00	-1.686728e-01	1.407294e+00
1929          	4.519453e-01	-1.059869e-01	5.579322e-01	3.573125e-02	-4.264497e-02	7.837622e-02	-6.051059e-02	-3.319595e-01	-7.878613e-01	1.238050e+00	-1.688361e-01	1.406887e+00
1930          	4.526618e-01	-1.055827e-01	5.582445e-01	3.635005e-02	-4.190826e-02	7.825831e-02	-6.008328e-02	-3.319136e-01	-7.877378e-01	1.237499e+00	-1.689884e-01	1.406487e+00
1931          	4.533765e-01	-1.051712e-01	5.585477e-01	3.701181e-02	-4.113364e-02	7.814545e-02	-5.963955e-02	-3.318594e-01	-7.876134e-01	1.236990e+00	-1.691184e-01	1.406108e+00
1932          	4.540765e-01	-1.047494e-01	5.588260e-01	3.775717e-02	-4.031022e-02	7.806739e-02	-5.918881e-02	-3.317877e-01	-7.874839e-01	1.236525e+00	-1.692213e-01	1.405746e+00
1933          	4.547665e-01	-1.043193e-01	5.590858e-01	3.857515e-02	-3.943631e-02	7.801146e-02	-5.872389e-02	-3.317025e-01	-7.873480e-01	1.236110e+00	-1.692931e-01	1.405403e+00
1934          	4.554417e-01	-1.038712e-01	5.593129e-01	3.950460e-02	-3.849458e-02	7.799919e-02	-5.824689e-02	-3.315920e-01	-7.872023e-01	1.235725e+00	-1.693399e-01	1.405065e+00
1935          	4.561065e-01	-1.034074e-01	5.595139e-01	4.055737e-02	-3.745165e-02	7.800902e-02	-5.773033e-02	-3.314606e-01	-7.870601e-01	1.235405e+00	-1.693574e-01	1.404763e+00
1936          	4.567507e-01	-1.029203e-01	5.596710e-01	4.178285e-02	-3.627561e-02	7.805847e-02	-5.716704e-02	-3.312957e-01	-7.869196e-01	1.235124e+00	-1.693574e-01	1.404482e+00
1937          	4.573781e-01	-1.024410e-01	5.598191e-01	4.303385e-02	-3.508960e-02	7.812345e-02	-5.660653e-02	-3.311300e-01	-7.867891e-01	1.234916e+00	-1.693309e-01	1.404247e+00
1938          	4.579707e-01	-1.019591e-01	5.599298e-01	4.436344e-02	-3.385099e-02	7.821442e-02	-5.603270e-02	-3.309444e-01	-7.866603e-01	1.234741e+00	-1.692897e-01	1.404031e+00
1939          	4.585218e-01	-1.014866e-01	5.600084e-01	4.573186e-02	-3.257836e-02	7.831022e-02	-5.544429e-02	-3.307475e-01	-7.865338e-01	1.234598e+00	-1.692350e-01	1.403833e+00
1940          	4.590225e-01	-1.010286e-01	5.600511e-01	4.706474e-02	-3.132930e-02	7.839404e-02	-5.486167e-02	-3.305398e-01	-7.863975e-01	1.234441e+00	-1.691772e-01	1.403618e+00
1941          	4.594770e-01	-1.005919e-01	5.600690e-01	4.835292e-02	-3.010781e-02	7.846073e-02	-5.428427e-02	-3.303305e-01	-7.862604e-01	1.234287e+00	-1.691167e-01	1.403404e+00
1942          	4.598631e-01	-1.002006e-01	5.600637e-01	4.952347e-02	-2.898961e-02	7.851308e-02	-5.375134e-02	-3.301321e-01	-7.861222e-01	1.234132e+00	-1.690560e-01	1.403188e+00
1943          	4.602018e-01	-9.985551e-02	5.600573e-01	5.054074e-02	-2.800177e-02	7.854250e-02	-5.327214e-02	-3.299564e-01	-7.859821e-01	1.233994e+00	-1.689850e-01	1.402979e+00
1944          	4.604792e-01	-9.957619e-02	5.600554e-01	5.133624e-02	-2.720107e-02	7.853731e-02	-5.286919e-02	-3.298158e-01	-7.858336e-01	1.233871e+00	-1.688983e-01	1.402769e+00
1945          	4.607206e-01	-9.936138e-02	5.600820e-01	5.186258e-02	-2.664023e-02	7.850280e-02	-5.257152e-02	-3.297217e-01	-7.856731e-01	1.233768e+00	-1.687892e-01	1.402557e+00
1946          	4.609203e-01	-9.921732e-02	5.601376e-01	5.209747e-02	-2.633588e-02	7.843336e-02	-5.238462e-02	-3.296775e-01	-7.855004e-01	1.233676e+00	-1.686625e-01	1.402338e+00
1947          	4.610854e-01	-9.914067e-02	5.602261e-01	5.205445e-02	-2.629256e-02	7.834701e-02	-5.231978e-02	-3.296834e-01	-7.853108e-01	1.233597e+00	-1.685125e-01	1.402109e+00
1948          	4.611988e-01	-9.914902e-02	5.603478e-01	5.170313e-02	-2.653205e-02	7.823518e-02	-5.238361e-02	-3.297484e-01	-7.851066e-01	1.233538e+00	-1.683378e-01	1.401875e+00
1949          	4.612724e-01	-9.923402e-02	5.605064e-01	5.107590e-02	-2.702341e-02	7.809931e-02	-5.256136e-02	-3.298702e-01	-7.848909e-01	1.233513e+00	-1.681344e-01	1.401647e+00
1950          	4.612892e-01	-9.939708e-02	5.606863e-01	5.024006e-02	-2.769769e-02	7.793776e-02	-5.281773e-02	-3.300417e-01	-7.846617e-01	1.233529e+00	-1.678971e-01	1.401426e+00
1951          	4.612618e-01	-9.963290e-02	5.608947e-01	4.921251e-02	-2.853651e-02	7.774902e-02	-5.314276e-02	-3.302638e-01	-7.844268e-01	1.233607e+00	-1.676236e-01	1.401230e+00
1952          	4.611735e-01	-9.993679e-02	5.611103e-01	4.809522e-02	-2.945266e-02	7.754787e-02	-5.350027e-02	-3.305236e-01	-7.841913e-01	1.233746e+00	-1.673182e-01	1.401064e+00
1953          	4.610429e-01	-1.002940e-01	5.613369e-01	4.687436e-02	-3.046168e-02	7.733604e-02	-5.389886e-02	-3.308154e-01	-7.839526e-01	1.233918e+00	-1.669933e-01	1.400912e+00
1954          	4.608633e-01	-1.006908e-01	5.615541e-01	4.564206e-02	-3.148058e-02	7.712264e-02	-5.430161e-02	-3.311225e-01	-7.837094e-01	1.234123e+00	-1.666481e-01	1.400771e+00
1955          	4.606641e-01	-1.011147e-01	5.617789e-01	4.438892e-02	-3.251336e-02	7.690228e-02	-5.470782e-02	-3.314468e-01	-7.834636e-01	1.234372e+00	-1.662776e-01	1.400649e+00
1956          	4.604318e-01	-1.015580e-01	5.619898e-01	4.320791e-02	-3.348006e-02	7.668797e-02	-5.508401e-02	-3.317739e-01	-7.832189e-01	1.234670e+00	-1.658838e-01	1.400554e+00
1957          	4.601812e-01	-1.020253e-01	5.622065e-01	4.203506e-02	-3.442885e-02	7.646391e-02	-5.544638e-02	-3.321159e-01	-7.829758e-01	1.235026e+00	-1.654627e-01	1.400489e+00
1958          	4.598971e-01	-1.025103e-01	5.624074e-01	4.092585e-02	-3.530293e-02	7.622878e-02	-5.576585e-02	-3.324589e-01	-7.827303e-01	1.235424e+00	-1.650184e-01	1.400442e+00
1959          	4.595921e-01	-1.030204e-01	5.626125e-01	3.981530e-02	-3.613981e-02	7.595511e-02	-5.604746e-02	-3.328164e-01	-7.824864e-01	1.235880e+00	-1.645464e-01	1.400426e+00
1960          	4.592631e-01	-1.035365e-01	5.627996e-01	3.877243e-02	-3.686799e-02	7.564042e-02	-5.625420e-02	-3.331680e-01	-7.822418e-01	1.236350e+00	-1.640667e-01	1.400417e+00
1961          	4.589209e-01	-1.040634e-01	5.629843e-01	3.776598e-02	-3.750234e-02	7.526832e-02	-5.638533e-02	-3.335239e-01	-7.820032e-01	1.236852e+00	-1.635771e-01	1.400429e+00
1962          	4.585683e-01	-1.045873e-01	5.631556e-01	3.683222e-02	-3.801655e-02	7.484877e-02	-5.643266e-02	-3.338714e-01	-7.817703e-01	1.237357e+00	-1.630917e-01	1.400449e+00
1963          	4.582374e-01	-1.050985e-01	5.633359e-01	3.591376e-02	-3.845181e-02	7.436557e-02	-5.640869e-02	-3.342172e-01	-7.815419e-01	1.237860e+00	-1.626117e-01	1.400472e+00
1964          	4.579354e-01	-1.055823e-01	5.635177e-01	3.502536e-02	-3.880490e-02	7.383026e-02	-5.631758e-02	-3.345500e-01	-7.813150e-01	1.238331e+00	-1.621496e-01	1.400480e+00
1965          	4.576978e-01	-1.060120e-01	5.637098e-01	3.418882e-02	-3.904359e-02	7.323241e-02	-5.613800e-02	-3.348609e-01	-7.810938e-01	1.238760e+00	-1.617138e-01	1.400474e+00