# Solver information
# Time        	U_solver      	Ux_initial    	Ux_final      	Ux_iters      	Uy_initial    	Uy_final      	Uy_iters      	Uz_initial    	Uz_final      	Uz_iters      	U_converged   	k_solver      	k_initial     	k_final       	k_iters       	k_converged   	omega_solver  	omega_initial 	omega_final   	omega_iters   	omega_converged	p_solver      	p_initial     	p_final       	p_iters       	p_converged   
1             	DILUPBiCGStab	7.185480e-02	2.931280e-04	2	1.012060e-01	9.736600e-05	3	2.851270e-01	1.767090e-03	2	false	DILUPBiCGStab	1.000000e+00	3.245470e-03	2	true	DILUPBiCGStab	4.563700e-03	1.311460e-05	2	true	GAMGPCG	2.130420e-01	6.753930e-04	4	true
2             	DILUPBiCGStab	5.345260e-02	2.477950e-04	2	4.722190e-02	3.716580e-04	3	1.742800e-01	5.810010e-04	2	false	DILUPBiCGStab	1.276520e-01	5.233920e-04	2	true	DILUPBiCGStab	1.861810e-03	8.978560e-06	2	true	GAMGPCG	2.568460e-01	2.358150e-03	3	true
3             	DILUPBiCGStab	4.481220e-02	2.401670e-04	3	2.644200e-02	2.346990e-04	2	1.159590e-01	4.208060e-04	2	false	DILUPBiCGStab	5.356460e-02	1.842030e-04	2	true	DILUPBiCGStab	2.202550e-03	8.337390e-06	2	true	GAMGPCG	2.599210e-01	9.454990e-04	4	true
4             	DILUPBiCGStab	4.146550e-02	1.774400e-04	2	1.987670e-02	4.904700e-05	3	8.192720e-02	3.238750e-04	2	false	DILUPBiCGStab	3.189290e-02	1.039950e-04	2	true	DILUPBiCGStab	2.428340e-03	7.639540e-06	2	true	GAMGPCG	1.887920e-01	1.420670e-03	3	true
5             	DILUPBiCGStab	3.833040e-02	1.571370e-04	2	2.024910e-02	1.058160e-04	3	6.606610e-02	2.631450e-04	2	false	DILUPBiCGStab	2.207710e-02	6.885700e-05	2	true	DILUPBiCGStab	2.468000e-03	6.678330e-06	2	true	GAMGPCG	1.594870e-01	1.507470e-03	3	true
6             	DILUPBiCGStab	3.275930e-02	1.378840e-04	2	1.892160e-02	8.282680e-05	3	5.698700e-02	7.038770e-05	3	false	DILUPBiCGStab	1.692610e-02	4.240710e-05	2	true	DILUPBiCGStab	2.566960e-03	6.317770e-06	2	true	GAMGPCG	1.590600e-01	9.047370e-04	3	true
7             	DILUPBiCGStab	2.633630e-02	1.341880e-04	2	1.589840e-02	7.688410e-05	3	4.845840e-02	8.111760e-05	3	false	DILUPBiCGStab	1.370370e-02	1.212320e-04	2	true	DILUPBiCGStab	2.593710e-03	6.047950e-06	2	true	GAMGPCG	1.676810e-01	7.687630e-04	4	true
8             	DILUPBiCGStab	2.160410e-02	1.085740e-04	2	1.288190e-02	8.663500e-05	3	4.038490e-02	2.006100e-04	2	false	DILUPBiCGStab	1.144810e-02	9.689600e-05	2	true	DILUPBiCGStab	2.543510e-03	2.471730e-05	2	true	GAMGPCG	1.783620e-01	1.305820e-03	3	true
9             	DILUPBiCGStab	2.031370e-02	1.095660e-04	2	1.154550e-02	9.316490e-05	2	3.357330e-02	1.309120e-04	2	false	DILUPBiCGStab	9.791570e-03	8.116960e-05	2	true	DILUPBiCGStab	2.393240e-03	2.289430e-05	2	true	GAMGPCG	1.884160e-01	9.093940e-04	4	true
10            	DILUPBiCGStab	2.035350e-02	8.563680e-05	2	1.209060e-02	4.636680e-05	3	2.917910e-02	1.136210e-04	2	false	DILUPBiCGStab	8.562190e-03	6.908380e-05	2	true	DILUPBiCGStab	2.247550e-03	2.108170e-05	2	true	GAMGPCG	1.983390e-01	9.819010e-04	3	true
11            	DILUPBiCGStab	1.982170e-02	8.633930e-05	2	1.260020e-02	4.651570e-05	3	2.621270e-02	9.677950e-05	3	false	DILUPBiCGStab	7.649630e-03	6.264270e-05	2	true	DILUPBiCGStab	2.084540e-03	1.917370e-05	2	true	GAMGPCG	2.044770e-01	1.588960e-03	3	true
12            	DILUPBiCGStab	1.837090e-02	8.307650e-05	2	1.237650e-02	7.934090e-05	2	2.418900e-02	9.527030e-05	2	false	DILUPBiCGStab	6.994620e-03	5.988630e-05	2	true	DILUPBiCGStab	1.918390e-03	1.748620e-05	2	true	GAMGPCG	2.017960e-01	9.490370e-04	3	true
13            	DILUPBiCGStab	1.653410e-02	8.503540e-05	2	1.165500e-02	4.985680e-05	2	2.273090e-02	8.709520e-05	2	false	DILUPBiCGStab	6.597040e-03	5.945640e-05	2	true	DILUPBiCGStab	1.782410e-03	1.630270e-05	2	true	GAMGPCG	1.916540e-01	1.824980e-03	3	true
14            	DILUPBiCGStab	1.493690e-02	1.052070e-04	2	1.095840e-02	4.620220e-05	2	2.141580e-02	7.975920e-05	2	false	DILUPBiCGStab	6.422550e-03	1.348720e-05	2	true	DILUPBiCGStab	1.677760e-03	1.551550e-05	2	true	GAMGPCG	1.792820e-01	8.173410e-04	3	true
15            	DILUPBiCGStab	1.388240e-02	1.256660e-04	2	1.052830e-02	4.484190e-05	2	2.001870e-02	7.453680e-05	2	false	DILUPBiCGStab	6.366900e-03	3.373000e-05	2	true	DILUPBiCGStab	1.601000e-03	1.585920e-05	2	true	GAMGPCG	1.689560e-01	1.409790e-03	3	true
16            	DILUPBiCGStab	1.305000e-02	2.398470e-05	3	1.026690e-02	4.544350e-05	2	1.866180e-02	7.589040e-05	2	false	DILUPBiCGStab	6.320700e-03	4.766180e-05	2	true	DILUPBiCGStab	1.540490e-03	1.469460e-05	2	true	GAMGPCG	1.620190e-01	1.613610e-03	2	true
17            	DILUPBiCGStab	1.240770e-02	1.731570e-05	3	1.004770e-02	4.602690e-05	2	1.740670e-02	1.660710e-04	2	false	DILUPBiCGStab	6.311070e-03	2.665330e-06	3	true	DILUPBiCGStab	1.491160e-03	1.356930e-05	2	true	GAMGPCG	1.585080e-01	1.050310e-03	3	true
18            	DILUPBiCGStab	1.179840e-02	1.810460e-05	3	9.803920e-03	4.486190e-05	2	1.625400e-02	7.204850e-05	2	false	DILUPBiCGStab	6.284490e-03	2.659770e-06	3	true	DILUPBiCGStab	1.443790e-03	1.319300e-05	2	true	GAMGPCG	1.572590e-01	5.856600e-04	3	true
19            	DILUPBiCGStab	1.123530e-02	5.529580e-05	2	9.590750e-03	4.286930e-05	2	1.534570e-02	7.992390e-05	3	false	DILUPBiCGStab	6.243360e-03	2.615140e-06	3	true	DILUPBiCGStab	1.396960e-03	1.234620e-05	2	true	GAMGPCG	1.574210e-01	1.246800e-03	3	true
20            	DILUPBiCGStab	1.073010e-02	4.768880e-05	2	9.432850e-03	4.114260e-05	2	1.470680e-02	5.358670e-05	3	false	DILUPBiCGStab	6.216990e-03	4.227880e-05	2	true	DILUPBiCGStab	1.357860e-03	1.182010e-05	2	true	GAMGPCG	1.574750e-01	4.970170e-04	3	true
21            	DILUPBiCGStab	1.023100e-02	4.920890e-05	2	9.302910e-03	3.936790e-05	2	1.415910e-02	9.536270e-05	2	false	DILUPBiCGStab	6.165650e-03	4.095430e-05	2	true	DILUPBiCGStab	1.321000e-03	1.113390e-05	2	true	GAMGPCG	1.564310e-01	1.065540e-03	3	true
22            	DILUPBiCGStab	9.737220e-03	8.586680e-05	2	9.181390e-03	3.710950e-05	2	1.362100e-02	5.720080e-05	2	false	DILUPBiCGStab	6.114120e-03	1.785640e-05	2	true	DILUPBiCGStab	1.290300e-03	1.084280e-05	2	true	GAMGPCG	1.543560e-01	4.618030e-04	3	true
23            	DILUPBiCGStab	9.250610e-03	3.216080e-05	3	9.049660e-03	4.101640e-05	2	1.306720e-02	4.711250e-05	2	false	DILUPBiCGStab	6.086150e-03	3.861220e-05	2	true	DILUPBiCGStab	1.262690e-03	1.080130e-05	2	true	GAMGPCG	1.515690e-01	1.095380e-03	3	true
24            	DILUPBiCGStab	8.815450e-03	1.943130e-05	3	8.915460e-03	1.030650e-05	3	1.250920e-02	4.501090e-05	2	false	DILUPBiCGStab	6.039110e-03	1.248280e-05	2	true	DILUPBiCGStab	1.236460e-03	1.054690e-05	2	true	GAMGPCG	1.482390e-01	5.500050e-04	3	true
25            	DILUPBiCGStab	8.435860e-03	7.242650e-05	2	8.812380e-03	7.785620e-05	2	1.202980e-02	4.411650e-05	2	false	DILUPBiCGStab	5.973000e-03	5.819510e-05	2	true	DILUPBiCGStab	1.208420e-03	1.018690e-05	2	true	GAMGPCG	1.449110e-01	1.018670e-03	3	true
26            	DILUPBiCGStab	8.053520e-03	6.226790e-05	2	8.751120e-03	6.292180e-05	2	1.164190e-02	4.302110e-05	2	false	DILUPBiCGStab	5.909690e-03	5.379230e-05	2	true	DILUPBiCGStab	1.185250e-03	1.007540e-05	2	true	GAMGPCG	1.418330e-01	5.043610e-04	3	true
27            	DILUPBiCGStab	7.696950e-03	5.770340e-05	2	8.710900e-03	7.197050e-05	2	1.130710e-02	4.140300e-05	2	false	DILUPBiCGStab	5.846270e-03	5.331070e-05	2	true	DILUPBiCGStab	1.166070e-03	9.858980e-06	2	true	GAMGPCG	1.392580e-01	8.724690e-04	3	true
28            	DILUPBiCGStab	7.372930e-03	5.130990e-05	2	8.666650e-03	1.173390e-05	3	1.098320e-02	3.981340e-05	2	false	DILUPBiCGStab	5.836690e-03	5.068180e-05	2	true	DILUPBiCGStab	1.149640e-03	9.954080e-06	2	true	GAMGPCG	1.370520e-01	1.341250e-03	2	true
29            	DILUPBiCGStab	7.063990e-03	5.098170e-05	2	8.599050e-03	3.574600e-05	2	1.065690e-02	3.812500e-05	2	false	DILUPBiCGStab	5.805540e-03	4.739560e-05	2	true	DILUPBiCGStab	1.131410e-03	9.720900e-06	2	true	GAMGPCG	1.350110e-01	8.355380e-04	3	true
30            	DILUPBiCGStab	6.792440e-03	5.895720e-05	2	8.509640e-03	3.591550e-05	2	1.032030e-02	3.671300e-05	2	false	DILUPBiCGStab	5.801590e-03	4.596600e-05	2	true	DILUPBiCGStab	1.117730e-03	9.507940e-06	2	true	GAMGPCG	1.331290e-01	1.259850e-03	2	true
31            	DILUPBiCGStab	6.559110e-03	7.622420e-06	3	8.432590e-03	3.610090e-05	2	1.001550e-02	3.735310e-05	2	false	DILUPBiCGStab	5.798200e-03	4.488390e-05	2	true	DILUPBiCGStab	1.104340e-03	9.195580e-06	2	true	GAMGPCG	1.310780e-01	8.351740e-04	3	true
32            	DILUPBiCGStab	6.355890e-03	1.087220e-05	3	8.371660e-03	3.538090e-05	2	9.725150e-03	6.606200e-05	2	false	DILUPBiCGStab	5.795330e-03	4.464650e-05	2	true	DILUPBiCGStab	1.090250e-03	9.318090e-06	2	true	GAMGPCG	1.289100e-01	1.232510e-03	2	true
33            	DILUPBiCGStab	6.165650e-03	3.564050e-05	2	8.324960e-03	3.430790e-05	2	9.435140e-03	1.827550e-05	3	false	DILUPBiCGStab	5.792140e-03	4.379590e-05	2	true	DILUPBiCGStab	1.080610e-03	9.100790e-06	2	true	GAMGPCG	1.265090e-01	8.141580e-04	3	true
34            	DILUPBiCGStab	5.999820e-03	2.701890e-05	2	8.288860e-03	3.299900e-05	2	9.152860e-03	6.543900e-05	2	false	DILUPBiCGStab	5.784770e-03	4.322070e-05	2	true	DILUPBiCGStab	1.072390e-03	8.764440e-06	2	true	GAMGPCG	1.239970e-01	1.199580e-03	2	true
35            	DILUPBiCGStab	5.833510e-03	2.466510e-05	2	8.256370e-03	3.108860e-05	2	8.914170e-03	5.548400e-05	2	false	DILUPBiCGStab	5.764320e-03	4.269320e-05	2	true	DILUPBiCGStab	1.065500e-03	8.552940e-06	2	true	GAMGPCG	1.214530e-01	7.618010e-04	3	true
36            	DILUPBiCGStab	5.661590e-03	2.387410e-05	2	8.217570e-03	2.866120e-05	2	8.724450e-03	7.962280e-05	2	false	DILUPBiCGStab	5.738250e-03	4.238100e-05	2	true	DILUPBiCGStab	1.057880e-03	8.461470e-06	2	true	GAMGPCG	1.189080e-01	1.099130e-03	2	true
37            	DILUPBiCGStab	5.487030e-03	2.383160e-05	2	8.164150e-03	3.124460e-05	2	8.582300e-03	1.274320e-05	3	false	DILUPBiCGStab	5.709790e-03	4.196640e-05	2	true	DILUPBiCGStab	1.050420e-03	8.349390e-06	2	true	GAMGPCG	1.164500e-01	6.972680e-04	3	true
38            	DILUPBiCGStab	5.306950e-03	2.532510e-05	2	8.103560e-03	5.581960e-05	2	8.461320e-03	4.482220e-05	2	false	DILUPBiCGStab	5.686280e-03	4.170700e-05	2	true	DILUPBiCGStab	1.044550e-03	8.218860e-06	2	true	GAMGPCG	1.139430e-01	9.851390e-04	2	true
39            	DILUPBiCGStab	5.118760e-03	3.454900e-05	2	8.038910e-03	2.022300e-05	3	8.348160e-03	2.957900e-05	2	false	DILUPBiCGStab	5.662520e-03	4.062430e-05	2	true	DILUPBiCGStab	1.035630e-03	8.162590e-06	2	true	GAMGPCG	1.115540e-01	6.436700e-04	3	true
40            	DILUPBiCGStab	4.937110e-03	2.392450e-05	3	7.977020e-03	8.473470e-06	3	8.221400e-03	2.763670e-05	2	false	DILUPBiCGStab	5.640010e-03	4.054420e-05	2	true	DILUPBiCGStab	1.025080e-03	8.097190e-06	2	true	GAMGPCG	1.094080e-01	9.223840e-04	2	true
41            	DILUPBiCGStab	4.778490e-03	8.108290e-06	3	7.919390e-03	7.835400e-06	3	8.078020e-03	2.679950e-05	2	false	DILUPBiCGStab	5.610350e-03	4.117270e-05	2	true	DILUPBiCGStab	1.017360e-03	7.997390e-06	2	true	GAMGPCG	1.073300e-01	6.489280e-04	3	true
42            	DILUPBiCGStab	4.648420e-03	6.783730e-06	3	7.869180e-03	7.613780e-06	3	7.933990e-03	2.635910e-05	2	false	DILUPBiCGStab	5.582580e-03	4.118390e-05	2	true	DILUPBiCGStab	1.011120e-03	7.920470e-06	2	true	GAMGPCG	1.053080e-01	9.008340e-04	2	true
43            	DILUPBiCGStab	4.535080e-03	6.313500e-06	3	7.830870e-03	7.180610e-06	3	7.788720e-03	2.597070e-05	2	false	DILUPBiCGStab	5.549370e-03	4.092670e-05	2	true	DILUPBiCGStab	1.001380e-03	7.900900e-06	2	true	GAMGPCG	1.032610e-01	6.686990e-04	3	true
44            	DILUPBiCGStab	4.433150e-03	6.037390e-06	3	7.802030e-03	6.791710e-06	3	7.649830e-03	2.546810e-05	2	false	DILUPBiCGStab	5.512660e-03	4.048700e-05	2	true	DILUPBiCGStab	9.933260e-04	7.822430e-06	2	true	GAMGPCG	1.010930e-01	8.920270e-04	2	true
45            	DILUPBiCGStab	4.336070e-03	6.010710e-06	3	7.779690e-03	6.482370e-06	3	7.522000e-03	2.482590e-05	2	false	DILUPBiCGStab	5.477930e-03	4.000080e-05	2	true	DILUPBiCGStab	9.895910e-04	7.733210e-06	2	true	GAMGPCG	9.895810e-02	6.809250e-04	3	true
46            	DILUPBiCGStab	4.234590e-03	5.903430e-06	3	7.763590e-03	6.404070e-06	3	7.405800e-03	2.416490e-05	2	false	DILUPBiCGStab	5.448890e-03	3.965990e-05	2	true	DILUPBiCGStab	9.835210e-04	7.676660e-06	2	true	GAMGPCG	9.682090e-02	8.779560e-04	2	true
47            	DILUPBiCGStab	4.132990e-03	5.790310e-06	3	7.749240e-03	6.342300e-06	3	7.315150e-03	2.369850e-05	2	false	DILUPBiCGStab	5.397310e-03	4.092240e-05	2	true	DILUPBiCGStab	9.741060e-04	7.637930e-06	2	true	GAMGPCG	9.471180e-02	6.518720e-04	3	true
48            	DILUPBiCGStab	4.033820e-03	3.672100e-05	2	7.737210e-03	6.285730e-06	3	7.240730e-03	2.342850e-05	2	false	DILUPBiCGStab	5.355500e-03	3.944190e-05	2	true	DILUPBiCGStab	9.669690e-04	7.635230e-06	2	true	GAMGPCG	9.260840e-02	8.443190e-04	2	true
49            	DILUPBiCGStab	3.934950e-03	2.578290e-05	2	7.729050e-03	6.201130e-06	3	7.170710e-03	2.310080e-05	2	false	DILUPBiCGStab	5.306520e-03	3.805400e-05	2	true	DILUPBiCGStab	9.572820e-04	7.536420e-06	2	true	GAMGPCG	9.056520e-02	5.880240e-04	3	true
50            	DILUPBiCGStab	3.838210e-03	1.981870e-05	2	7.724730e-03	6.123800e-06	3	7.102220e-03	2.283800e-05	2	false	DILUPBiCGStab	5.254980e-03	3.824020e-05	2	true	DILUPBiCGStab	9.479460e-04	7.480780e-06	2	true	GAMGPCG	8.857280e-02	7.985510e-04	2	true
51            	DILUPBiCGStab	3.743480e-03	1.689700e-05	2	7.720520e-03	6.352410e-06	3	7.034710e-03	2.254270e-05	2	false	DILUPBiCGStab	5.200030e-03	3.702070e-05	2	true	DILUPBiCGStab	9.381970e-04	7.404710e-06	2	true	GAMGPCG	8.667070e-02	5.360280e-04	3	true
52            	DILUPBiCGStab	3.653480e-03	1.548010e-05	2	7.714300e-03	7.132410e-06	3	6.969520e-03	2.227310e-05	2	false	DILUPBiCGStab	5.150330e-03	3.672870e-05	2	true	DILUPBiCGStab	9.281020e-04	7.331850e-06	2	true	GAMGPCG	8.484250e-02	7.714530e-04	2	true
53            	DILUPBiCGStab	3.572480e-03	1.475310e-05	2	7.702060e-03	7.126400e-05	2	6.907640e-03	2.202820e-05	2	false	DILUPBiCGStab	5.104160e-03	3.792160e-05	2	true	DILUPBiCGStab	9.210230e-04	7.235900e-06	2	true	GAMGPCG	8.311160e-02	5.118810e-04	3	true
54            	DILUPBiCGStab	3.499120e-03	1.455390e-05	2	7.689240e-03	5.469890e-05	2	6.845400e-03	2.186370e-05	2	false	DILUPBiCGStab	5.050070e-03	3.728820e-05	2	true	DILUPBiCGStab	9.135370e-04	7.181710e-06	2	true	GAMGPCG	8.143780e-02	7.608190e-04	2	true
55            	DILUPBiCGStab	3.433010e-03	1.418230e-05	2	7.670280e-03	5.590800e-05	2	6.785810e-03	2.158170e-05	2	false	DILUPBiCGStab	5.004180e-03	3.492640e-05	2	true	DILUPBiCGStab	9.114510e-04	7.143900e-06	2	true	GAMGPCG	7.988050e-02	5.007920e-04	3	true
56            	DILUPBiCGStab	3.372800e-03	1.352050e-05	2	7.651590e-03	5.445050e-05	2	6.736600e-03	2.132960e-05	2	false	DILUPBiCGStab	4.958950e-03	3.438850e-05	2	true	DILUPBiCGStab	9.093790e-04	7.042000e-06	2	true	GAMGPCG	7.845950e-02	7.526030e-04	2	true
57            	DILUPBiCGStab	3.317550e-03	1.307160e-05	2	7.630490e-03	4.119860e-05	2	6.700410e-03	2.140220e-05	2	false	DILUPBiCGStab	4.915440e-03	3.443420e-05	2	true	DILUPBiCGStab	9.072050e-04	7.088260e-06	2	true	GAMGPCG	7.707040e-02	5.010800e-04	3	true
58            	DILUPBiCGStab	3.270180e-03	1.251680e-05	2	7.609390e-03	3.393910e-05	2	6.672600e-03	2.388080e-05	2	false	DILUPBiCGStab	4.871190e-03	3.389160e-05	2	true	DILUPBiCGStab	9.065190e-04	7.075550e-06	2	true	GAMGPCG	7.574190e-02	7.497790e-04	2	true
59            	DILUPBiCGStab	3.227420e-03	1.204150e-05	2	7.591700e-03	3.752010e-05	2	6.648710e-03	2.761400e-05	2	false	DILUPBiCGStab	4.820170e-03	3.267860e-05	2	true	DILUPBiCGStab	9.058650e-04	6.980390e-06	2	true	GAMGPCG	7.443890e-02	5.047090e-04	3	true
60            	DILUPBiCGStab	3.187260e-03	1.138320e-05	2	7.574550e-03	4.541620e-05	2	6.628070e-03	3.483140e-05	2	false	DILUPBiCGStab	4.774280e-03	3.144050e-05	2	true	DILUPBiCGStab	9.035490e-04	6.952810e-06	2	true	GAMGPCG	7.320970e-02	2.234110e-04	3	true
61            	DILUPBiCGStab	3.148600e-03	1.077880e-05	2	7.561620e-03	4.298510e-05	2	6.611620e-03	4.512220e-05	2	false	DILUPBiCGStab	4.727840e-03	3.118700e-05	2	true	DILUPBiCGStab	8.993540e-04	6.973800e-06	2	true	GAMGPCG	7.208830e-02	5.055800e-04	3	true
62            	DILUPBiCGStab	3.111250e-03	1.045490e-05	2	7.551830e-03	3.359950e-05	2	6.604990e-03	4.893780e-05	2	false	DILUPBiCGStab	4.680300e-03	3.237110e-05	2	true	DILUPBiCGStab	8.973140e-04	6.993240e-06	2	true	GAMGPCG	7.105950e-02	2.220060e-04	3	true
63            	DILUPBiCGStab	3.074900e-03	1.025030e-05	2	7.543620e-03	2.642330e-05	2	6.601100e-03	4.038330e-05	2	false	DILUPBiCGStab	4.634260e-03	3.312980e-05	2	true	DILUPBiCGStab	8.935180e-04	6.945650e-06	2	true	GAMGPCG	7.011460e-02	5.025420e-04	3	true
64            	DILUPBiCGStab	3.039910e-03	1.016780e-05	2	7.537580e-03	2.330970e-05	2	6.598960e-03	2.542620e-05	2	false	DILUPBiCGStab	4.586620e-03	3.374430e-05	2	true	DILUPBiCGStab	8.903960e-04	6.912170e-06	2	true	GAMGPCG	6.917120e-02	2.232690e-04	3	true
65            	DILUPBiCGStab	3.006400e-03	1.042180e-05	2	7.533250e-03	2.196610e-05	2	6.596110e-03	1.791670e-05	2	false	DILUPBiCGStab	4.531850e-03	3.366610e-05	2	true	DILUPBiCGStab	8.843550e-04	6.821700e-06	2	true	GAMGPCG	6.822710e-02	4.898220e-04	3	true
66            	DILUPBiCGStab	2.972660e-03	1.212870e-05	2	7.528130e-03	2.080200e-05	2	6.592000e-03	1.630140e-05	2	false	DILUPBiCGStab	4.483380e-03	3.275800e-05	2	true	DILUPBiCGStab	8.793900e-04	6.770510e-06	2	true	GAMGPCG	6.726350e-02	2.186660e-04	3	true
67            	DILUPBiCGStab	2.939360e-03	1.507710e-05	2	7.523980e-03	1.960280e-05	2	6.590110e-03	1.619920e-05	2	false	DILUPBiCGStab	4.430210e-03	3.420740e-05	2	true	DILUPBiCGStab	8.745180e-04	6.739800e-06	2	true	GAMGPCG	6.629420e-02	4.733030e-04	3	true
68            	DILUPBiCGStab	2.906350e-03	1.751650e-05	2	7.520970e-03	1.920810e-05	2	6.591970e-03	1.620420e-05	2	false	DILUPBiCGStab	4.380290e-03	3.726390e-05	2	true	DILUPBiCGStab	8.711450e-04	6.725380e-06	2	true	GAMGPCG	6.534430e-02	2.090930e-04	3	true
69            	DILUPBiCGStab	2.874520e-03	2.091240e-06	3	7.518790e-03	1.908790e-05	2	6.594880e-03	1.628320e-05	2	false	DILUPBiCGStab	4.330190e-03	3.859040e-05	2	true	DILUPBiCGStab	8.669340e-04	6.755710e-06	2	true	GAMGPCG	6.452220e-02	4.679310e-04	3	true
70            	DILUPBiCGStab	2.846060e-03	2.009610e-06	3	7.517520e-03	1.905660e-05	2	6.596940e-03	1.689130e-05	2	false	DILUPBiCGStab	4.280030e-03	3.475670e-05	2	true	DILUPBiCGStab	8.621170e-04	6.628010e-06	2	true	GAMGPCG	6.378800e-02	2.015440e-04	3	true
71            	DILUPBiCGStab	2.819270e-03	1.994580e-06	3	7.517160e-03	1.902030e-05	2	6.597810e-03	2.301990e-05	2	false	DILUPBiCGStab	4.232050e-03	3.543590e-05	2	true	DILUPBiCGStab	8.567040e-04	6.536970e-06	2	true	GAMGPCG	6.306970e-02	4.480740e-04	3	true
72            	DILUPBiCGStab	2.794320e-03	2.057500e-06	3	7.516320e-03	1.894330e-05	2	6.600920e-03	5.899080e-05	2	false	DILUPBiCGStab	4.192670e-03	3.394210e-05	2	true	DILUPBiCGStab	8.548330e-04	6.528340e-06	2	true	GAMGPCG	6.226600e-02	1.987540e-04	3	true
73            	DILUPBiCGStab	2.769740e-03	2.063070e-06	3	7.518840e-03	1.887510e-05	2	6.605440e-03	2.375420e-05	3	false	DILUPBiCGStab	4.154260e-03	3.393640e-05	2	true	DILUPBiCGStab	8.527740e-04	6.503700e-06	2	true	GAMGPCG	6.143420e-02	4.130740e-04	3	true
74            	DILUPBiCGStab	2.745670e-03	2.065190e-06	3	7.520610e-03	1.882760e-05	2	6.615660e-03	6.580800e-05	2	false	DILUPBiCGStab	4.122530e-03	3.425990e-05	2	true	DILUPBiCGStab	8.520230e-04	6.431780e-06	2	true	GAMGPCG	6.067050e-02	1.931970e-04	3	true
75            	DILUPBiCGStab	2.723250e-03	2.015040e-06	3	7.520250e-03	1.878780e-05	2	6.627180e-03	3.158570e-05	2	false	DILUPBiCGStab	4.094830e-03	3.255440e-05	2	true	DILUPBiCGStab	8.518640e-04	6.413580e-06	2	true	GAMGPCG	5.989680e-02	3.954490e-04	3	true
76            	DILUPBiCGStab	2.702860e-03	2.153630e-05	2	7.519050e-03	1.869330e-05	2	6.634530e-03	2.299290e-05	2	false	DILUPBiCGStab	4.067970e-03	3.219270e-05	2	true	DILUPBiCGStab	8.498020e-04	6.441990e-06	2	true	GAMGPCG	5.921430e-02	1.913680e-04	3	true
77            	DILUPBiCGStab	2.683890e-03	2.015040e-05	2	7.514810e-03	1.857420e-05	2	6.641460e-03	1.914750e-05	2	false	DILUPBiCGStab	4.045330e-03	3.766160e-05	2	true	DILUPBiCGStab	8.501920e-04	6.512930e-06	2	true	GAMGPCG	5.855420e-02	4.011280e-04	3	true
78            	DILUPBiCGStab	2.664660e-03	1.934320e-05	2	7.507980e-03	1.840690e-05	2	6.652080e-03	1.774140e-05	2	false	DILUPBiCGStab	4.023420e-03	1.128390e-05	2	true	DILUPBiCGStab	8.500020e-04	6.503920e-06	2	true	GAMGPCG	5.789650e-02	1.913150e-04	3	true
79            	DILUPBiCGStab	2.645580e-03	1.696000e-05	2	7.501180e-03	1.824760e-05	2	6.663120e-03	1.704210e-05	2	false	DILUPBiCGStab	4.004420e-03	8.744280e-06	2	true	DILUPBiCGStab	8.499280e-04	6.486680e-06	2	true	GAMGPCG	5.725450e-02	4.139120e-04	3	true
80            	DILUPBiCGStab	2.626280e-03	1.622730e-05	2	7.492300e-03	1.810360e-05	2	6.676070e-03	1.656480e-05	2	false	DILUPBiCGStab	3.983180e-03	3.579540e-05	2	true	DILUPBiCGStab	8.488520e-04	6.526030e-06	2	true	GAMGPCG	5.662900e-02	1.879190e-04	3	true
81            	DILUPBiCGStab	2.607320e-03	1.700880e-05	2	7.482610e-03	1.792040e-05	2	6.689260e-03	1.629380e-05	2	false	DILUPBiCGStab	3.959940e-03	9.987820e-06	2	true	DILUPBiCGStab	8.494890e-04	6.507040e-06	2	true	GAMGPCG	5.599190e-02	3.935980e-04	3	true
82            	DILUPBiCGStab	2.589590e-03	1.678620e-05	2	7.471210e-03	1.773360e-05	2	6.704710e-03	1.620220e-05	2	false	DILUPBiCGStab	3.939870e-03	7.809660e-06	2	true	DILUPBiCGStab	8.496380e-04	6.445970e-06	2	true	GAMGPCG	5.542880e-02	1.856980e-04	3	true
83            	DILUPBiCGStab	2.572390e-03	1.555280e-05	2	7.460910e-03	1.759950e-05	2	6.721170e-03	1.611200e-05	2	false	DILUPBiCGStab	3.915590e-03	3.716220e-05	2	true	DILUPBiCGStab	8.503990e-04	6.490810e-06	2	true	GAMGPCG	5.493450e-02	3.755410e-04	3	true
84            	DILUPBiCGStab	2.554860e-03	1.462400e-05	2	7.449200e-03	1.750490e-05	2	6.737830e-03	1.607150e-05	2	false	DILUPBiCGStab	3.888750e-03	3.252130e-05	2	true	DILUPBiCGStab	8.508580e-04	6.423910e-06	2	true	GAMGPCG	5.446140e-02	1.848410e-04	3	true
85            	DILUPBiCGStab	2.537060e-03	1.230360e-05	2	7.436820e-03	1.738320e-05	2	6.754720e-03	1.585160e-05	2	false	DILUPBiCGStab	3.860700e-03	3.071260e-05	2	true	DILUPBiCGStab	8.508850e-04	6.495230e-06	2	true	GAMGPCG	5.403780e-02	3.675130e-04	3	true
86            	DILUPBiCGStab	2.519040e-03	1.002060e-05	2	7.422800e-03	1.727850e-05	2	6.772980e-03	1.565080e-05	2	false	DILUPBiCGStab	3.831320e-03	2.822020e-05	2	true	DILUPBiCGStab	8.512930e-04	6.459090e-06	2	true	GAMGPCG	5.353400e-02	1.820630e-04	3	true
87            	DILUPBiCGStab	2.501550e-03	8.762050e-06	2	7.408130e-03	1.718770e-05	2	6.788330e-03	1.551050e-05	2	false	DILUPBiCGStab	3.799980e-03	3.043100e-05	2	true	DILUPBiCGStab	8.506770e-04	6.452810e-06	2	true	GAMGPCG	5.299200e-02	3.438850e-04	3	true
88            	DILUPBiCGStab	2.485760e-03	8.058280e-06	2	7.390130e-03	1.713170e-05	2	6.799810e-03	1.527430e-05	2	false	DILUPBiCGStab	3.766760e-03	2.997110e-05	2	true	DILUPBiCGStab	8.508130e-04	6.464540e-06	2	true	GAMGPCG	5.237480e-02	1.738700e-04	3	true
89            	DILUPBiCGStab	2.471270e-03	7.509610e-06	2	7.370190e-03	1.715470e-05	2	6.809860e-03	1.522420e-05	2	false	DILUPBiCGStab	3.732670e-03	2.708500e-05	2	true	DILUPBiCGStab	8.501570e-04	6.349220e-06	2	true	GAMGPCG	5.177770e-02	3.185790e-04	3	true
90            	DILUPBiCGStab	2.456800e-03	6.992370e-06	2	7.347890e-03	1.718640e-05	2	6.822080e-03	1.532180e-05	2	false	DILUPBiCGStab	3.697080e-03	2.618930e-05	2	true	DILUPBiCGStab	8.492140e-04	6.372770e-06	2	true	GAMGPCG	5.112600e-02	1.627090e-04	3	true
91            	DILUPBiCGStab	2.442530e-03	6.676200e-06	2	7.322710e-03	1.714110e-05	2	6.833550e-03	1.545690e-05	2	false	DILUPBiCGStab	3.662020e-03	2.632650e-05	2	true	DILUPBiCGStab	8.479110e-04	6.411060e-06	2	true	GAMGPCG	5.043570e-02	3.089240e-04	3	true
92            	DILUPBiCGStab	2.427980e-03	6.521550e-06	2	7.296960e-03	1.704030e-05	2	6.843530e-03	6.762450e-05	2	false	DILUPBiCGStab	3.625780e-03	2.706360e-05	2	true	DILUPBiCGStab	8.459560e-04	6.303740e-06	2	true	GAMGPCG	4.971480e-02	1.546520e-04	3	true
93            	DILUPBiCGStab	2.413320e-03	6.252960e-06	2	7.271710e-03	7.237850e-05	2	6.857610e-03	6.721210e-05	2	false	DILUPBiCGStab	3.589730e-03	3.252530e-05	2	true	DILUPBiCGStab	8.439900e-04	6.358240e-06	2	true	GAMGPCG	4.901670e-02	2.995700e-04	3	true
94            	DILUPBiCGStab	2.397750e-03	5.967210e-06	2	7.249640e-03	7.165210e-05	2	6.875080e-03	6.653810e-05	2	false	DILUPBiCGStab	3.555640e-03	9.473930e-06	2	true	DILUPBiCGStab	8.406400e-04	6.401800e-06	2	true	GAMGPCG	4.829620e-02	1.545170e-04	3	true
95            	DILUPBiCGStab	2.381460e-03	5.731020e-06	2	7.228830e-03	7.063520e-05	2	6.892550e-03	6.604160e-05	2	false	DILUPBiCGStab	3.522200e-03	7.790080e-06	2	true	DILUPBiCGStab	8.364360e-04	6.273520e-06	2	true	GAMGPCG	4.756090e-02	2.911220e-04	3	true
96            	DILUPBiCGStab	2.364400e-03	5.539580e-06	2	7.212150e-03	6.989990e-05	2	6.907730e-03	6.569260e-05	2	false	DILUPBiCGStab	3.491240e-03	8.115260e-06	2	true	DILUPBiCGStab	8.313240e-04	6.279040e-06	2	true	GAMGPCG	4.678570e-02	1.552550e-04	3	true
97            	DILUPBiCGStab	2.347340e-03	5.402980e-06	2	7.197100e-03	6.946280e-05	2	6.923580e-03	6.526510e-05	2	false	DILUPBiCGStab	3.458900e-03	1.194190e-05	2	true	DILUPBiCGStab	8.255840e-04	6.144000e-06	2	true	GAMGPCG	4.600960e-02	2.841650e-04	3	true
98            	DILUPBiCGStab	2.330450e-03	5.316800e-06	2	7.185650e-03	6.921540e-05	2	6.941820e-03	6.495300e-05	2	false	DILUPBiCGStab	3.423550e-03	3.160100e-05	2	true	DILUPBiCGStab	8.193480e-04	6.116340e-06	2	true	GAMGPCG	4.525860e-02	1.522240e-04	3	true
99            	DILUPBiCGStab	2.314960e-03	5.256360e-06	2	7.178130e-03	6.867220e-05	2	6.961340e-03	6.511090e-05	2	false	DILUPBiCGStab	3.391960e-03	9.588410e-07	3	true	DILUPBiCGStab	8.146790e-04	6.218130e-06	2	true	GAMGPCG	4.460940e-02	2.838600e-04	3	true
100           	DILUPBiCGStab	2.300150e-03	5.170560e-06	2	7.177880e-03	6.818300e-05	2	6.980840e-03	6.537610e-05	2	false	DILUPBiCGStab	3.365550e-03	1.028260e-06	3	true	DILUPBiCGStab	8.095440e-04	6.188590e-06	2	true	GAMGPCG	4.403800e-02	1.516610e-04	3	true
101           	DILUPBiCGStab	2.285850e-03	5.076960e-06	2	7.180550e-03	6.827840e-05	2	7.001600e-03	6.549320e-05	2	false	DILUPBiCGStab	3.341430e-03	1.083490e-06	3	true	DILUPBiCGStab	8.045280e-04	6.127440e-06	2	true	GAMGPCG	4.349300e-02	2.861030e-04	3	true
102           	DILUPBiCGStab	2.271940e-03	5.056130e-06	2	7.186850e-03	6.857810e-05	2	7.025900e-03	6.556280e-05	2	false	DILUPBiCGStab	3.318100e-03	1.122530e-06	3	true	DILUPBiCGStab	7.994730e-04	6.115750e-06	2	true	GAMGPCG	4.295520e-02	1.500700e-04	3	true
103           	DILUPBiCGStab	2.258650e-03	5.110860e-06	2	7.193520e-03	6.872530e-05	2	7.053760e-03	6.564260e-05	2	false	DILUPBiCGStab	3.295620e-03	1.142750e-06	3	true	DILUPBiCGStab	7.936150e-04	6.014220e-06	2	true	GAMGPCG	4.244690e-02	2.767330e-04	3	true
104           	DILUPBiCGStab	2.245100e-03	5.230990e-06	2	7.201350e-03	6.891920e-05	2	7.083640e-03	6.551270e-05	2	false	DILUPBiCGStab	3.276210e-03	1.165990e-06	3	true	DILUPBiCGStab	7.884680e-04	5.893170e-06	2	true	GAMGPCG	4.199100e-02	1.442330e-04	3	true
105           	DILUPBiCGStab	2.232140e-03	5.466790e-06	2	7.207930e-03	6.922630e-05	2	7.113320e-03	6.516820e-05	2	false	DILUPBiCGStab	3.256980e-03	1.176300e-06	3	true	DILUPBiCGStab	7.824770e-04	5.878980e-06	2	true	GAMGPCG	4.156650e-02	2.617990e-04	3	true
106           	DILUPBiCGStab	2.219440e-03	5.684890e-06	2	7.213730e-03	6.981040e-05	2	7.142190e-03	6.491760e-05	2	false	DILUPBiCGStab	3.240510e-03	1.194290e-06	3	true	DILUPBiCGStab	7.777140e-04	5.867620e-06	2	true	GAMGPCG	4.120700e-02	1.365550e-04	3	true
107           	DILUPBiCGStab	2.207650e-03	5.776880e-06	2	7.220370e-03	7.031570e-05	2	7.172740e-03	6.513580e-05	2	false	DILUPBiCGStab	3.225440e-03	2.776120e-05	2	true	DILUPBiCGStab	7.738310e-04	5.907470e-06	2	true	GAMGPCG	4.092940e-02	2.480930e-04	3	true
108           	DILUPBiCGStab	2.197190e-03	6.126980e-06	2	7.229070e-03	7.086160e-05	2	7.201800e-03	6.526780e-05	2	false	DILUPBiCGStab	3.212380e-03	2.142930e-05	2	true	DILUPBiCGStab	7.693480e-04	5.836960e-06	2	true	GAMGPCG	4.073860e-02	1.314050e-04	3	true
109           	DILUPBiCGStab	2.187920e-03	6.883120e-06	2	7.239170e-03	7.131700e-05	2	7.228020e-03	6.545230e-05	2	false	DILUPBiCGStab	3.199170e-03	2.038240e-05	2	true	DILUPBiCGStab	7.653700e-04	5.862020e-06	2	true	GAMGPCG	4.061550e-02	2.355490e-04	3	true
110           	DILUPBiCGStab	2.179570e-03	7.420180e-06	2	7.249260e-03	7.176000e-05	2	7.251570e-03	6.579220e-05	2	false	DILUPBiCGStab	3.187460e-03	2.134250e-05	2	true	DILUPBiCGStab	7.620370e-04	5.858560e-06	2	true	GAMGPCG	4.055200e-02	1.300160e-04	3	true
111           	DILUPBiCGStab	2.172370e-03	7.791830e-06	2	7.258880e-03	7.233040e-05	2	7.274110e-03	6.600930e-05	2	false	DILUPBiCGStab	3.175690e-03	2.312170e-05	2	true	DILUPBiCGStab	7.583170e-04	5.796280e-06	2	true	GAMGPCG	4.052730e-02	2.306990e-04	3	true
112           	DILUPBiCGStab	2.165680e-03	8.821010e-06	2	7.267240e-03	7.254650e-05	2	7.297080e-03	6.660310e-05	2	false	DILUPBiCGStab	3.165890e-03	2.121770e-05	2	true	DILUPBiCGStab	7.556720e-04	5.880800e-06	2	true	GAMGPCG	4.050830e-02	1.286610e-04	3	true
113           	DILUPBiCGStab	2.159480e-03	8.834930e-06	2	7.274110e-03	1.555610e-05	2	7.315950e-03	6.739740e-05	2	false	DILUPBiCGStab	3.157590e-03	2.515450e-05	2	true	DILUPBiCGStab	7.536750e-04	5.869200e-06	2	true	GAMGPCG	4.053360e-02	2.279160e-04	3	true
114           	DILUPBiCGStab	2.153950e-03	9.242920e-06	2	7.276450e-03	1.567460e-05	2	7.330210e-03	6.787110e-05	2	false	DILUPBiCGStab	3.150320e-03	2.738060e-05	2	true	DILUPBiCGStab	7.515490e-04	5.934770e-06	2	true	GAMGPCG	4.061900e-02	1.249040e-04	3	true
115           	DILUPBiCGStab	2.148950e-03	9.549180e-06	2	7.278260e-03	1.581350e-05	2	7.342170e-03	6.802510e-05	2	false	DILUPBiCGStab	3.143080e-03	2.527710e-05	2	true	DILUPBiCGStab	7.493210e-04	5.917560e-06	2	true	GAMGPCG	4.070850e-02	2.247640e-04	3	true
116           	DILUPBiCGStab	2.144300e-03	9.741400e-06	2	7.279830e-03	1.599650e-05	2	7.352790e-03	6.809400e-05	2	false	DILUPBiCGStab	3.138640e-03	2.449610e-05	2	true	DILUPBiCGStab	7.481660e-04	5.880770e-06	2	true	GAMGPCG	4.071590e-02	1.215400e-04	3	true