# Force and moment coefficients
# dragDir     : (1.000000e+00 0.000000e+00 0.000000e+00)
# sideDir     : (0.000000e+00 1.000000e+00 0.000000e+00)
# liftDir     : (0.000000e+00 0.000000e+00 1.000000e+00)
# rollAxis    : (1.000000e+00 0.000000e+00 0.000000e+00)
# pitchAxis   : (0.000000e+00 1.000000e+00 0.000000e+00)
# yawAxis     : (0.000000e+00 0.000000e+00 1.000000e+00)
# magUInf     : 1.750000e+01
# lRef        : 1.854000e+00
# Aref        : 6.450000e-01
# CofR        : (0.000000e+00 0.000000e+00 1.000000e+00)
#
# Time        	Cd            	Cd(f)         	Cd(r)         	Cl            	Cl(f)         	Cl(r)         	CmPitch       	CmRoll        	CmYaw         	Cs            	Cs(f)         	Cs(r)         
1             	2.751974e-01	1.162589e-01	1.589385e-01	-8.084228e-01	-6.889057e-01	-1.195171e-01	-2.846943e-01	-2.133978e-02	4.775131e-02	4.077412e-01	2.516219e-01	1.561193e-01
2             	5.014810e-01	4.566594e-01	4.482159e-02	-5.342901e-01	-6.142144e-01	7.992430e-02	-3.470694e-01	2.059189e-01	5.755042e-02	1.094637e+00	6.048687e-01	4.897678e-01
3             	7.134006e-01	7.714075e-01	-5.800689e-02	-2.593585e-01	-5.540532e-01	2.946947e-01	-4.243739e-01	4.147072e-01	6.429063e-02	1.715308e+00	9.219448e-01	7.933636e-01
4             	8.225389e-01	9.625699e-01	-1.400310e-01	-4.912217e-02	-5.084237e-01	4.593015e-01	-4.838626e-01	5.513005e-01	7.682140e-02	2.108547e+00	1.131095e+00	9.774520e-01
5             	7.937909e-01	9.974598e-01	-2.036689e-01	7.435203e-02	-4.697335e-01	5.440856e-01	-5.069095e-01	6.005643e-01	9.846610e-02	2.229887e+00	1.213409e+00	1.016477e+00
6             	6.539295e-01	9.051304e-01	-2.512009e-01	1.231442e-01	-4.331370e-01	5.562813e-01	-4.947091e-01	5.781657e-01	1.260762e-01	2.128645e+00	1.190399e+00	9.382464e-01
7             	4.672923e-01	7.488953e-01	-2.816030e-01	1.216131e-01	-4.016877e-01	5.233008e-01	-4.624943e-01	5.152491e-01	1.525025e-01	1.903381e+00	1.104193e+00	7.991878e-01
8             	2.992466e-01	5.952730e-01	-2.960263e-01	1.047420e-01	-3.803250e-01	4.850670e-01	-4.326960e-01	4.456496e-01	1.711841e-01	1.658560e+00	1.000464e+00	6.580960e-01
9             	1.953246e-01	4.917658e-01	-2.964413e-01	9.599048e-02	-3.707913e-01	4.667817e-01	-4.187865e-01	3.941036e-01	1.782690e-01	1.471815e+00	9.141766e-01	5.576386e-01
10            	1.714187e-01	4.570845e-01	-2.856657e-01	1.028582e-01	-3.714751e-01	4.743333e-01	-4.229042e-01	3.713751e-01	1.737006e-01	1.379447e+00	8.634241e-01	5.160230e-01
11            	2.157473e-01	4.844346e-01	-2.686873e-01	1.258610e-01	-3.790034e-01	5.048644e-01	-4.419339e-01	3.765609e-01	1.607386e-01	1.378321e+00	8.498988e-01	5.284217e-01
12            	2.991511e-01	5.500676e-01	-2.509165e-01	1.597335e-01	-3.871179e-01	5.468514e-01	-4.669846e-01	4.004921e-01	1.436015e-01	1.439292e+00	8.632475e-01	5.760445e-01
13            	3.892619e-01	6.267944e-01	-2.375324e-01	2.008971e-01	-3.875323e-01	5.884294e-01	-4.879808e-01	4.321634e-01	1.263553e-01	1.524509e+00	8.886099e-01	6.358993e-01
14            	4.590282e-01	6.893268e-01	-2.302986e-01	2.364848e-01	-3.794088e-01	6.158936e-01	-4.976512e-01	4.598127e-01	1.121812e-01	1.599823e+00	9.120925e-01	6.877301e-01
15            	4.949026e-01	7.258797e-01	-2.309771e-01	2.668911e-01	-3.589451e-01	6.258362e-01	-4.923906e-01	4.784284e-01	1.022664e-01	1.645717e+00	9.251248e-01	7.205919e-01
16            	4.967022e-01	7.346355e-01	-2.379333e-01	2.895203e-01	-3.293700e-01	6.188903e-01	-4.741302e-01	4.862844e-01	9.662344e-02	1.657056e+00	9.251516e-01	7.319047e-01
17            	4.745619e-01	7.225910e-01	-2.480291e-01	3.040417e-01	-2.956786e-01	5.997202e-01	-4.476994e-01	4.853101e-01	9.408025e-02	1.640637e+00	9.143988e-01	7.262383e-01
18            	4.426134e-01	7.005736e-01	-2.579602e-01	3.124476e-01	-2.633233e-01	5.757709e-01	-4.195471e-01	4.792669e-01	9.308706e-02	1.609052e+00	8.976129e-01	7.114388e-01
19            	4.138192e-01	6.792341e-01	-2.654149e-01	3.184980e-01	-2.360147e-01	5.545127e-01	-3.952637e-01	4.723245e-01	9.228192e-02	1.575468e+00	8.800159e-01	6.954520e-01
20            	3.968590e-01	6.660778e-01	-2.692188e-01	3.259255e-01	-2.151301e-01	5.410556e-01	-3.780928e-01	4.676483e-01	9.078388e-02	1.549560e+00	8.655637e-01	6.839959e-01
21            	3.945546e-01	6.641115e-01	-2.695569e-01	3.373885e-01	-1.996379e-01	5.370263e-01	-3.683321e-01	4.668342e-01	8.828679e-02	1.535778e+00	8.561759e-01	6.796024e-01
22            	4.047988e-01	6.723411e-01	-2.675423e-01	3.540452e-01	-1.875580e-01	5.416032e-01	-3.645806e-01	4.699417e-01	8.493393e-02	1.533654e+00	8.517609e-01	6.818931e-01
23            	4.225008e-01	6.871549e-01	-2.646541e-01	3.754257e-01	-1.763786e-01	5.518043e-01	-3.640914e-01	4.759045e-01	8.111640e-02	1.539527e+00	8.508799e-01	6.886471e-01
24            	4.418445e-01	7.041078e-01	-2.622633e-01	4.000131e-01	-1.643098e-01	5.643229e-01	-3.643164e-01	4.831856e-01	7.729596e-02	1.548603e+00	8.515975e-01	6.970056e-01
25            	4.581022e-01	7.192535e-01	-2.611513e-01	4.249860e-01	-1.509383e-01	5.759243e-01	-3.634313e-01	4.902024e-01	7.383425e-02	1.556745e+00	8.522068e-01	7.045383e-01
26            	4.690290e-01	7.304349e-01	-2.614060e-01	4.482368e-01	-1.365290e-01	5.847658e-01	-3.606474e-01	4.959205e-01	7.087615e-02	1.561387e+00	8.515698e-01	7.098175e-01
27            	4.744344e-01	7.371257e-01	-2.626912e-01	4.683485e-01	-1.219585e-01	5.903070e-01	-3.561327e-01	4.999085e-01	6.840829e-02	1.561757e+00	8.492870e-01	7.124704e-01
28            	4.758239e-01	7.398527e-01	-2.640288e-01	4.832026e-01	-1.089037e-01	5.921063e-01	-3.505050e-01	5.019407e-01	6.621233e-02	1.558380e+00	8.454022e-01	7.129775e-01
29            	4.754866e-01	7.402614e-01	-2.647748e-01	4.940465e-01	-9.796070e-02	5.920072e-01	-3.449840e-01	5.025181e-01	6.418870e-02	1.552505e+00	8.404414e-01	7.120640e-01
30            	4.754774e-01	7.397798e-01	-2.643024e-01	5.006462e-01	-8.992494e-02	5.905711e-01	-3.402480e-01	5.020411e-01	6.214398e-02	1.545857e+00	8.350727e-01	7.107847e-01
31            	4.771265e-01	7.394919e-01	-2.623654e-01	5.039391e-01	-8.494287e-02	5.888820e-01	-3.369124e-01	5.009287e-01	6.003030e-02	1.539499e+00	8.297799e-01	7.097193e-01
32            	4.810549e-01	7.397249e-01	-2.586700e-01	5.029526e-01	-8.364151e-02	5.865941e-01	-3.351178e-01	4.991975e-01	5.781481e-02	1.534200e+00	8.249150e-01	7.092854e-01
33            	4.869575e-01	7.405209e-01	-2.535634e-01	4.987355e-01	-8.542713e-02	5.841627e-01	-3.347949e-01	4.970422e-01	5.552970e-02	1.529988e+00	8.205236e-01	7.094642e-01
34            	4.941061e-01	7.412848e-01	-2.471787e-01	4.905868e-01	-9.032975e-02	5.809166e-01	-3.356232e-01	4.942318e-01	5.317989e-02	1.526490e+00	8.164251e-01	7.100653e-01
35            	5.016690e-01	7.415483e-01	-2.398792e-01	4.783930e-01	-9.775759e-02	5.761505e-01	-3.369541e-01	4.907138e-01	5.081733e-02	1.523538e+00	8.125862e-01	7.109515e-01
36            	5.086266e-01	7.407521e-01	-2.321255e-01	4.628735e-01	-1.070776e-01	5.699511e-01	-3.385144e-01	4.864388e-01	4.849097e-02	1.520403e+00	8.086926e-01	7.117107e-01
37            	5.146045e-01	7.390825e-01	-2.244779e-01	4.454869e-01	-1.174074e-01	5.628944e-01	-3.401509e-01	4.817802e-01	4.618340e-02	1.517197e+00	8.047818e-01	7.124150e-01
38            	5.194776e-01	7.369849e-01	-2.175074e-01	4.290501e-01	-1.275811e-01	5.566312e-01	-3.421062e-01	4.772461e-01	4.390624e-02	1.513770e+00	8.007912e-01	7.129787e-01
39            	5.233929e-01	7.348463e-01	-2.114534e-01	4.144170e-01	-1.370884e-01	5.515054e-01	-3.442969e-01	4.731499e-01	4.171444e-02	1.510438e+00	7.969333e-01	7.135045e-01
40            	5.268709e-01	7.334158e-01	-2.065449e-01	4.041392e-01	-1.447762e-01	5.489154e-01	-3.468458e-01	4.699804e-01	3.949211e-02	1.507230e+00	7.931071e-01	7.141229e-01
41            	5.302937e-01	7.329857e-01	-2.026921e-01	3.980777e-01	-1.505622e-01	5.486399e-01	-3.496010e-01	4.678389e-01	3.721959e-02	1.504422e+00	7.894304e-01	7.149912e-01
42            	5.340247e-01	7.337387e-01	-1.997140e-01	3.964084e-01	-1.542540e-01	5.506624e-01	-3.524582e-01	4.667263e-01	3.482907e-02	1.501945e+00	7.858018e-01	7.161437e-01
43            	5.383149e-01	7.356387e-01	-1.973238e-01	3.980768e-01	-1.561935e-01	5.542702e-01	-3.552319e-01	4.664813e-01	3.223789e-02	1.499922e+00	7.821987e-01	7.177229e-01
44            	5.431899e-01	7.382311e-01	-1.950412e-01	4.012108e-01	-1.572735e-01	5.584843e-01	-3.578789e-01	4.666362e-01	2.940352e-02	1.498073e+00	7.784402e-01	7.196331e-01
45            	5.485074e-01	7.411707e-01	-1.926632e-01	4.043937e-01	-1.581356e-01	5.625293e-01	-3.603325e-01	4.669169e-01	2.632946e-02	1.496459e+00	7.745590e-01	7.219001e-01
46            	5.540885e-01	7.440529e-01	-1.899643e-01	4.066992e-01	-1.589682e-01	5.656673e-01	-3.623178e-01	4.670086e-01	2.305425e-02	1.494751e+00	7.704296e-01	7.243211e-01
47            	5.597437e-01	7.465776e-01	-1.868338e-01	4.068656e-01	-1.603342e-01	5.671999e-01	-3.637670e-01	4.667057e-01	1.973577e-02	1.493175e+00	7.663234e-01	7.268519e-01
48            	5.651082e-01	7.485188e-01	-1.834106e-01	4.049414e-01	-1.621743e-01	5.671156e-01	-3.646450e-01	4.659647e-01	1.650982e-02	1.491538e+00	7.622790e-01	7.292593e-01
49            	5.701939e-01	7.500570e-01	-1.798632e-01	4.011763e-01	-1.645919e-01	5.657682e-01	-3.651801e-01	4.649601e-01	1.353897e-02	1.490225e+00	7.586516e-01	7.315736e-01
50            	5.750269e-01	7.513158e-01	-1.762889e-01	3.964007e-01	-1.674607e-01	5.638614e-01	-3.656611e-01	4.638024e-01	1.082788e-02	1.489047e+00	7.553513e-01	7.336956e-01
51            	5.796745e-01	7.525079e-01	-1.728334e-01	3.911040e-01	-1.707414e-01	5.618454e-01	-3.662934e-01	4.626706e-01	8.403409e-03	1.488180e+00	7.524937e-01	7.356868e-01
52            	5.842326e-01	7.537334e-01	-1.695009e-01	3.859541e-01	-1.745521e-01	5.605062e-01	-3.675292e-01	4.616171e-01	6.188741e-03	1.487296e+00	7.498367e-01	7.374592e-01
53            	5.886764e-01	7.550964e-01	-1.664200e-01	3.813102e-01	-1.787649e-01	5.600751e-01	-3.694200e-01	4.607582e-01	4.183445e-03	1.486523e+00	7.474449e-01	7.390780e-01
54            	5.930754e-01	7.564178e-01	-1.633424e-01	3.767095e-01	-1.837515e-01	5.604610e-01	-3.721063e-01	4.598801e-01	2.278981e-03	1.485517e+00	7.450373e-01	7.404794e-01
55            	5.973816e-01	7.575536e-01	-1.601720e-01	3.715524e-01	-1.898544e-01	5.614068e-01	-3.756306e-01	4.588628e-01	4.829506e-04	1.484374e+00	7.426698e-01	7.417039e-01
56            	6.017083e-01	7.582958e-01	-1.565875e-01	3.649134e-01	-1.972988e-01	5.622122e-01	-3.797555e-01	4.574416e-01	-1.271146e-03	1.482901e+00	7.401795e-01	7.427218e-01
57            	6.060272e-01	7.585729e-01	-1.525457e-01	3.563617e-01	-2.062177e-01	5.625793e-01	-3.843985e-01	4.555593e-01	-2.978015e-03	1.481238e+00	7.376411e-01	7.435971e-01
58            	6.104280e-01	7.582612e-01	-1.478332e-01	3.453437e-01	-2.163879e-01	5.617315e-01	-3.890597e-01	4.530472e-01	-4.707426e-03	1.479215e+00	7.348999e-01	7.443148e-01
59            	6.149326e-01	7.572847e-01	-1.423521e-01	3.311784e-01	-2.278930e-01	5.590714e-01	-3.934822e-01	4.498184e-01	-6.470626e-03	1.476969e+00	7.320141e-01	7.449554e-01
60            	6.196722e-01	7.556634e-01	-1.359911e-01	3.138884e-01	-2.402905e-01	5.541789e-01	-3.972347e-01	4.458273e-01	-8.330940e-03	1.474351e+00	7.288444e-01	7.455063e-01
61            	6.246880e-01	7.535631e-01	-1.288751e-01	2.937272e-01	-2.533494e-01	5.470766e-01	-4.002130e-01	4.412191e-01	-1.027931e-02	1.471644e+00	7.255427e-01	7.461013e-01
62            	6.300656e-01	7.510322e-01	-1.209666e-01	2.709716e-01	-2.669001e-01	5.378717e-01	-4.023859e-01	4.359994e-01	-1.237267e-02	1.468730e+00	7.219922e-01	7.467375e-01
63            	6.357719e-01	7.482631e-01	-1.124912e-01	2.463931e-01	-2.806381e-01	5.270312e-01	-4.038346e-01	4.303772e-01	-1.459067e-02	1.465779e+00	7.182987e-01	7.474800e-01
64            	6.417991e-01	7.454027e-01	-1.036036e-01	2.209751e-01	-2.942455e-01	5.152206e-01	-4.047330e-01	4.245031e-01	-1.696172e-02	1.462709e+00	7.143930e-01	7.483164e-01
65            	6.480648e-01	7.425475e-01	-9.448277e-02	1.953595e-01	-3.075609e-01	5.029205e-01	-4.052407e-01	4.185152e-01	-1.952212e-02	1.459639e+00	7.102972e-01	7.493414e-01
66            	6.544505e-01	7.397787e-01	-8.532813e-02	1.703090e-01	-3.203680e-01	4.906771e-01	-4.055225e-01	4.125534e-01	-2.229031e-02	1.456559e+00	7.059890e-01	7.505696e-01
67            	6.608243e-01	7.371522e-01	-7.632791e-02	1.463378e-01	-3.324693e-01	4.788071e-01	-4.056382e-01	4.067401e-01	-2.526743e-02	1.453539e+00	7.015022e-01	7.520371e-01
68            	6.671892e-01	7.347869e-01	-6.759772e-02	1.241932e-01	-3.434843e-01	4.676775e-01	-4.055809e-01	4.011923e-01	-2.845815e-02	1.450488e+00	6.967856e-01	7.537019e-01
69            	6.734217e-01	7.326971e-01	-5.927540e-02	1.039886e-01	-3.532871e-01	4.572757e-01	-4.052814e-01	3.959863e-01	-3.183421e-02	1.447521e+00	6.919262e-01	7.555946e-01
70            	6.794088e-01	7.310191e-01	-5.161037e-02	8.651323e-02	-3.614667e-01	4.479800e-01	-4.047234e-01	3.913147e-01	-3.534235e-02	1.444731e+00	6.870232e-01	7.577079e-01
71            	6.849965e-01	7.297035e-01	-4.470700e-02	7.147893e-02	-3.681563e-01	4.396352e-01	-4.038958e-01	3.872053e-01	-3.888007e-02	1.442282e+00	6.822608e-01	7.600210e-01
72            	6.901013e-01	7.288346e-01	-3.873324e-02	5.931182e-02	-3.733053e-01	4.326171e-01	-4.029612e-01	3.837839e-01	-4.236492e-02	1.440271e+00	6.777707e-01	7.625006e-01
73            	6.945007e-01	7.283788e-01	-3.387805e-02	5.053919e-02	-3.768660e-01	4.274051e-01	-4.021355e-01	3.811284e-01	-4.564848e-02	1.438645e+00	6.736740e-01	7.649710e-01
74            	6.980971e-01	7.283499e-01	-3.025281e-02	4.537026e-02	-3.789060e-01	4.242763e-01	-4.015911e-01	3.793013e-01	-4.863349e-02	1.437444e+00	6.700885e-01	7.673554e-01
75            	7.010013e-01	7.288714e-01	-2.787016e-02	4.379302e-02	-3.797325e-01	4.235255e-01	-4.016290e-01	3.783708e-01	-5.128631e-02	1.436881e+00	6.671541e-01	7.697267e-01
76            	7.033947e-01	7.299239e-01	-2.652923e-02	4.490367e-02	-3.799257e-01	4.248294e-01	-4.023775e-01	3.782266e-01	-5.364790e-02	1.437061e+00	6.648827e-01	7.721785e-01
77            	7.053726e-01	7.315738e-01	-2.620117e-02	4.912299e-02	-3.794430e-01	4.285660e-01	-4.040045e-01	3.788875e-01	-5.577716e-02	1.437858e+00	6.631518e-01	7.747061e-01
78            	7.069540e-01	7.337280e-01	-2.677396e-02	5.565068e-02	-3.784849e-01	4.341356e-01	-4.063103e-01	3.802510e-01	-5.767397e-02	1.439334e+00	6.619931e-01	7.773410e-01
79            	7.082384e-01	7.361920e-01	-2.795354e-02	6.365996e-02	-3.772133e-01	4.408733e-01	-4.090433e-01	3.820727e-01	-5.939228e-02	1.441263e+00	6.612393e-01	7.800239e-01
80            	7.091871e-01	7.386134e-01	-2.942639e-02	7.145604e-02	-3.759909e-01	4.474469e-01	-4.117189e-01	3.840199e-01	-6.093217e-02	1.443531e+00	6.608334e-01	7.826978e-01
81            	7.099118e-01	7.408883e-01	-3.097650e-02	7.871940e-02	-3.749447e-01	4.536641e-01	-4.143044e-01	3.859324e-01	-6.233692e-02	1.445872e+00	6.605990e-01	7.852729e-01
82            	7.104454e-01	7.429488e-01	-3.250335e-02	8.509792e-02	-3.741204e-01	4.592183e-01	-4.166694e-01	3.877261e-01	-6.357912e-02	1.448170e+00	6.605059e-01	7.876641e-01
83            	7.109509e-01	7.448973e-01	-3.394640e-02	9.103151e-02	-3.734608e-01	4.644924e-01	-4.189766e-01	3.894218e-01	-6.468546e-02	1.450290e+00	6.604593e-01	7.898302e-01
84            	7.116191e-01	7.466567e-01	-3.503755e-02	9.586949e-02	-3.731249e-01	4.689944e-01	-4.210596e-01	3.908471e-01	-6.569306e-02	1.452059e+00	6.603364e-01	7.917225e-01
85            	7.126093e-01	7.482964e-01	-3.568706e-02	9.994863e-02	-3.731272e-01	4.730758e-01	-4.231015e-01	3.919917e-01	-6.663693e-02	1.453353e+00	6.600398e-01	7.933137e-01
86            	7.140045e-01	7.498613e-01	-3.585681e-02	1.035599e-01	-3.734573e-01	4.770172e-01	-4.252373e-01	3.928591e-01	-6.748909e-02	1.454028e+00	6.595250e-01	7.945032e-01
87            	7.159312e-01	7.513526e-01	-3.542144e-02	1.064154e-01	-3.743866e-01	4.808020e-01	-4.275943e-01	3.933870e-01	-6.830644e-02	1.454096e+00	6.587415e-01	7.953544e-01
88            	7.184043e-01	7.526926e-01	-3.428821e-02	1.080547e-01	-3.760621e-01	4.841168e-01	-4.300895e-01	3.934904e-01	-6.914861e-02	1.453529e+00	6.576161e-01	7.959133e-01
89            	7.213962e-01	7.538785e-01	-3.248231e-02	1.083063e-01	-3.786063e-01	4.869126e-01	-4.327594e-01	3.931804e-01	-7.006207e-02	1.452482e+00	6.561791e-01	7.963033e-01
90            	7.248071e-01	7.548472e-01	-3.004011e-02	1.070996e-01	-3.818247e-01	4.889243e-01	-4.353745e-01	3.924437e-01	-7.106116e-02	1.450953e+00	6.544151e-01	7.965374e-01
91            	7.286507e-01	7.556013e-01	-2.695064e-02	1.041398e-01	-3.858167e-01	4.899565e-01	-4.378866e-01	3.912760e-01	-7.218386e-02	1.449116e+00	6.523741e-01	7.967418e-01
92            	7.328619e-01	7.560876e-01	-2.322570e-02	9.948388e-02	-3.904152e-01	4.898991e-01	-4.401571e-01	3.896567e-01	-7.344822e-02	1.446911e+00	6.500075e-01	7.969039e-01
93            	7.374604e-01	7.564412e-01	-1.898084e-02	9.337453e-02	-3.955792e-01	4.889537e-01	-4.422665e-01	3.877110e-01	-7.487215e-02	1.444580e+00	6.474176e-01	7.971619e-01
94            	7.424435e-01	7.568396e-01	-1.439608e-02	8.654423e-02	-4.010646e-01	4.876088e-01	-4.443367e-01	3.856178e-01	-7.647357e-02	1.442256e+00	6.446545e-01	7.976016e-01
95            	7.478082e-01	7.574444e-01	-9.636225e-03	7.947796e-02	-4.068104e-01	4.862884e-01	-4.465494e-01	3.835403e-01	-7.820886e-02	1.440132e+00	6.418570e-01	7.982747e-01
96            	7.534119e-01	7.584315e-01	-5.019577e-03	7.321397e-02	-4.124207e-01	4.856347e-01	-4.490277e-01	3.817255e-01	-7.998359e-02	1.438340e+00	6.391865e-01	7.991537e-01
97            	7.591640e-01	7.598954e-01	-7.313551e-04	6.838175e-02	-4.176873e-01	4.860691e-01	-4.518782e-01	3.803134e-01	-8.171990e-02	1.436932e+00	6.367460e-01	8.001858e-01
98            	7.648665e-01	7.618952e-01	2.971292e-03	6.579016e-02	-4.223607e-01	4.881509e-01	-4.552558e-01	3.794619e-01	-8.332342e-02	1.435935e+00	6.346439e-01	8.012907e-01
99            	7.704542e-01	7.643805e-01	6.073697e-03	6.559888e-02	-4.264376e-01	4.920365e-01	-4.592371e-01	3.791534e-01	-8.476323e-02	1.435238e+00	6.328556e-01	8.023821e-01
100           	7.756625e-01	7.671149e-01	8.547596e-03	6.748025e-02	-4.298577e-01	4.973379e-01	-4.635978e-01	3.792837e-01	-8.604383e-02	1.434755e+00	6.313335e-01	8.034211e-01
101           	7.804098e-01	7.698476e-01	1.056222e-02	7.062035e-02	-4.328329e-01	5.034532e-01	-4.681431e-01	3.796427e-01	-8.721118e-02	1.434351e+00	6.299644e-01	8.043867e-01
102           	7.845434e-01	7.724211e-01	1.212226e-02	7.462767e-02	-4.352024e-01	5.098301e-01	-4.725163e-01	3.801494e-01	-8.830091e-02	1.434039e+00	6.287185e-01	8.053203e-01
103           	7.880509e-01	7.747623e-01	1.328861e-02	7.917199e-02	-4.369711e-01	5.161430e-01	-4.765571e-01	3.807369e-01	-8.934258e-02	1.433797e+00	6.275561e-01	8.062412e-01
104           	7.909506e-01	7.769258e-01	1.402473e-02	8.404415e-02	-4.381215e-01	5.221656e-01	-4.801436e-01	3.814506e-01	-9.035681e-02	1.433821e+00	6.265537e-01	8.072673e-01
105           	7.934184e-01	7.790283e-01	1.439009e-02	8.909563e-02	-4.388170e-01	5.279127e-01	-4.833649e-01	3.823191e-01	-9.135303e-02	1.434194e+00	6.257440e-01	8.084500e-01
106           	7.955523e-01	7.811823e-01	1.437001e-02	9.430750e-02	-4.390551e-01	5.333626e-01	-4.862089e-01	3.834061e-01	-9.236243e-02	1.435041e+00	6.251582e-01	8.098831e-01
107           	7.975518e-01	7.835182e-01	1.403362e-02	9.981927e-02	-4.388854e-01	5.387046e-01	-4.887950e-01	3.847423e-01	-9.339964e-02	1.436341e+00	6.247709e-01	8.115702e-01
108           	7.994212e-01	7.860498e-01	1.337143e-02	1.056446e-01	-4.383120e-01	5.439567e-01	-4.911344e-01	3.863392e-01	-9.447160e-02	1.438077e+00	6.245668e-01	8.135100e-01
109           	8.012206e-01	7.887668e-01	1.245380e-02	1.118334e-01	-4.374254e-01	5.492589e-01	-4.933422e-01	3.881565e-01	-9.558704e-02	1.440099e+00	6.244622e-01	8.156363e-01
110           	8.028872e-01	7.915734e-01	1.131376e-02	1.181788e-01	-4.362738e-01	5.544527e-01	-4.953633e-01	3.901298e-01	-9.673545e-02	1.442306e+00	6.244173e-01	8.178882e-01
111           	8.044020e-01	7.944291e-01	9.972920e-03	1.247971e-01	-4.349126e-01	5.597096e-01	-4.973111e-01	3.922281e-01	-9.791902e-02	1.444566e+00	6.243642e-01	8.202022e-01
112           	8.056985e-01	7.971669e-01	8.531678e-03	1.311142e-01	-4.334676e-01	5.645818e-01	-4.990247e-01	3.943176e-01	-9.911301e-02	1.446780e+00	6.242769e-01	8.225029e-01
113           	8.068023e-01	7.997821e-01	7.020174e-03	1.371961e-01	-4.319763e-01	5.691724e-01	-5.005743e-01	3.963810e-01	-1.003048e-01	1.448830e+00	6.241103e-01	8.247198e-01
114           	8.076600e-01	8.020891e-01	5.570939e-03	1.423530e-01	-4.305649e-01	5.729179e-01	-5.017414e-01	3.982591e-01	-1.014782e-01	1.450626e+00	6.238346e-01	8.267910e-01
115           	8.082967e-01	8.040718e-01	4.224924e-03	1.466714e-01	-4.292141e-01	5.758855e-01	-5.025498e-01	3.999234e-01	-1.026149e-01	1.452089e+00	6.234295e-01	8.286593e-01
116           	8.087121e-01	8.056293e-01	3.082817e-03	1.497762e-01	-4.280113e-01	5.777875e-01	-5.028994e-01	4.012733e-01	-1.037326e-01	1.453173e+00	6.228538e-01	8.303189e-01
117           	8.089452e-01	8.067251e-01	2.220049e-03	1.514916e-01	-4.269990e-01	5.784906e-01	-5.027448e-01	4.022525e-01	-1.048275e-01	1.453868e+00	6.221066e-01	8.317616e-01
118           	8.089830e-01	8.073345e-01	1.648504e-03	1.519241e-01	-4.260874e-01	5.780114e-01	-5.020494e-01	4.028430e-01	-1.058968e-01	1.454111e+00	6.211586e-01	8.329522e-01
119           	8.088695e-01	8.074675e-01	1.402021e-03	1.508738e-01	-4.253347e-01	5.762085e-01	-5.007716e-01	4.030327e-01	-1.069236e-01	1.454004e+00	6.200782e-01	8.339254e-01
120           	8.086460e-01	8.071274e-01	1.518617e-03	1.482964e-01	-4.247532e-01	5.730496e-01	-4.989014e-01	4.028044e-01	-1.079357e-01	1.453578e+00	6.188535e-01	8.347248e-01
121           	8.083189e-01	8.063689e-01	1.950003e-03	1.442221e-01	-4.243719e-01	5.685941e-01	-4.964830e-01	4.022095e-01	-1.088928e-01	1.452998e+00	6.176061e-01	8.353917e-01
122           	8.078895e-01	8.053066e-01	2.582929e-03	1.391199e-01	-4.240864e-01	5.632064e-01	-4.936464e-01	4.013618e-01	-1.097747e-01	1.452368e+00	6.164093e-01	8.359588e-01
123           	8.072577e-01	8.040381e-01	3.219602e-03	1.335851e-01	-4.237717e-01	5.573567e-01	-4.905642e-01	4.004093e-01	-1.105225e-01	1.451782e+00	6.153684e-01	8.364134e-01
124           	8.063830e-01	8.026511e-01	3.731944e-03	1.281293e-01	-4.233044e-01	5.514337e-01	-4.873690e-01	3.994596e-01	-1.111185e-01	1.451240e+00	6.145016e-01	8.367387e-01
125           	8.051571e-01	8.011254e-01	4.031736e-03	1.229758e-01	-4.225982e-01	5.455740e-01	-4.840861e-01	3.985468e-01	-1.115321e-01	1.450713e+00	6.138246e-01	8.368888e-01
126           	8.035690e-01	7.994739e-01	4.095095e-03	1.183404e-01	-4.215941e-01	5.399344e-01	-4.807643e-01	3.976894e-01	-1.117835e-01	1.450124e+00	6.132787e-01	8.368457e-01
127           	8.016269e-01	7.977692e-01	3.857657e-03	1.143747e-01	-4.202674e-01	5.346422e-01	-4.774548e-01	3.969558e-01	-1.118902e-01	1.449577e+00	6.128981e-01	8.366785e-01
128           	7.993295e-01	7.959604e-01	3.369036e-03	1.112086e-01	-4.185244e-01	5.297329e-01	-4.741287e-01	3.962957e-01	-1.118960e-01	1.448861e+00	6.125344e-01	8.363265e-01
129           	7.966956e-01	7.940153e-01	2.680354e-03	1.085876e-01	-4.163744e-01	5.249620e-01	-4.706682e-01	3.956675e-01	-1.118120e-01	1.447967e+00	6.121715e-01	8.357956e-01
130           	7.937530e-01	7.918760e-01	1.876966e-03	1.064911e-01	-4.138067e-01	5.202978e-01	-4.670522e-01	3.949995e-01	-1.116683e-01	1.446670e+00	6.116668e-01	8.350034e-01
131           	7.905922e-01	7.896320e-01	9.602598e-04	1.048549e-01	-4.108705e-01	5.157255e-01	-4.632980e-01	3.943359e-01	-1.114378e-01	1.445068e+00	6.110960e-01	8.339716e-01
132           	7.872913e-01	7.873324e-01	-4.111812e-05	1.038119e-01	-4.076580e-01	5.114700e-01	-4.595640e-01	3.936868e-01	-1.111367e-01	1.443081e+00	6.104040e-01	8.326774e-01
133           	7.839666e-01	7.851036e-01	-1.137025e-03	1.032457e-01	-4.041937e-01	5.074393e-01	-4.558165e-01	3.931203e-01	-1.108004e-01	1.440909e+00	6.096542e-01	8.312550e-01
134           	7.806880e-01	7.829591e-01	-2.271085e-03	1.030463e-01	-4.006395e-01	5.036858e-01	-4.521627e-01	3.926151e-01	-1.104390e-01	1.438524e+00	6.088231e-01	8.297010e-01
135           	7.775680e-01	7.809704e-01	-3.402394e-03	1.029852e-01	-3.970984e-01	5.000836e-01	-4.485910e-01	3.921864e-01	-1.101055e-01	1.436058e+00	6.079237e-01	8.281346e-01
136           	7.746396e-01	7.791354e-01	-4.495788e-03	1.031764e-01	-3.936415e-01	4.968179e-01	-4.452297e-01	3.918156e-01	-1.098317e-01	1.433402e+00	6.068691e-01	8.265325e-01
137           	7.718922e-01	7.774396e-01	-5.547355e-03	1.036174e-01	-3.902525e-01	4.938699e-01	-4.420612e-01	3.914935e-01	-1.096254e-01	1.430544e+00	6.056466e-01	8.248975e-01
138           	7.692573e-01	7.757780e-01	-6.520754e-03	1.042920e-01	-3.868721e-01	4.911640e-01	-4.390180e-01	3.911494e-01	-1.095041e-01	1.427346e+00	6.041689e-01	8.231771e-01
139           	7.667471e-01	7.741135e-01	-7.366470e-03	1.050357e-01	-3.834797e-01	4.885154e-01	-4.359976e-01	3.907400e-01	-1.094714e-01	1.423807e+00	6.024320e-01	8.213747e-01
140           	7.643456e-01	7.724033e-01	-8.057673e-03	1.058632e-01	-3.800652e-01	4.859284e-01	-4.329968e-01	3.902305e-01	-1.095301e-01	1.419861e+00	6.004002e-01	8.194604e-01
141           	7.621120e-01	7.706774e-01	-8.565409e-03	1.066192e-01	-3.767358e-01	4.833550e-01	-4.300454e-01	3.896214e-01	-1.096895e-01	1.415613e+00	5.981168e-01	8.174958e-01
142           	7.601007e-01	7.688871e-01	-8.786415e-03	1.069686e-01	-3.737039e-01	4.806725e-01	-4.271882e-01	3.888368e-01	-1.099795e-01	1.411071e+00	5.955558e-01	8.155148e-01
143           	7.584320e-01	7.670636e-01	-8.631628e-03	1.066690e-01	-3.711676e-01	4.778365e-01	-4.245020e-01	3.878476e-01	-1.104157e-01	1.406277e+00	5.927229e-01	8.135544e-01
144           	7.571466e-01	7.652112e-01	-8.064571e-03	1.055643e-01	-3.693271e-01	4.748914e-01	-4.221093e-01	3.866379e-01	-1.109830e-01	1.401279e+00	5.896564e-01	8.116224e-01
145           	7.563133e-01	7.633838e-01	-7.070439e-03	1.035950e-01	-3.682883e-01	4.718834e-01	-4.200858e-01	3.852271e-01	-1.117187e-01	1.396153e+00	5.863578e-01	8.097953e-01
146           	7.558953e-01	7.616070e-01	-5.711784e-03	1.009056e-01	-3.680231e-01	4.689287e-01	-4.184759e-01	3.836594e-01	-1.126244e-01	1.390965e+00	5.828582e-01	8.081070e-01
147           	7.558096e-01	7.598620e-01	-4.052414e-03	9.736872e-02	-3.685498e-01	4.659185e-01	-4.172342e-01	3.819572e-01	-1.137049e-01	1.385845e+00	5.792173e-01	8.066272e-01
148           	7.559312e-01	7.581566e-01	-2.225380e-03	9.338234e-02	-3.696716e-01	4.630540e-01	-4.163628e-01	3.801910e-01	-1.149190e-01	1.380820e+00	5.754912e-01	8.053293e-01
149           	7.561553e-01	7.564653e-01	-3.100596e-04	8.884464e-02	-3.714246e-01	4.602692e-01	-4.158469e-01	3.783877e-01	-1.162199e-01	1.376031e+00	5.717956e-01	8.042353e-01
150           	7.563535e-01	7.548049e-01	1.548616e-03	8.412177e-02	-3.736131e-01	4.577349e-01	-4.156740e-01	3.766281e-01	-1.175604e-01	1.371572e+00	5.682257e-01	8.033465e-01
151           	7.564154e-01	7.531358e-01	3.279584e-03	7.914313e-02	-3.762696e-01	4.554127e-01	-4.158411e-01	3.749281e-01	-1.188685e-01	1.367570e+00	5.649167e-01	8.026536e-01
152           	7.562729e-01	7.514834e-01	4.789519e-03	7.427504e-02	-3.791595e-01	4.534346e-01	-4.162970e-01	3.733470e-01	-1.200955e-01	1.364071e+00	5.619397e-01	8.021308e-01
153           	7.558477e-01	7.498019e-01	6.045775e-03	6.944667e-02	-3.823022e-01	4.517489e-01	-4.170255e-01	3.718781e-01	-1.212281e-01	1.361120e+00	5.593318e-01	8.017881e-01
154           	7.551377e-01	7.481435e-01	6.994155e-03	6.506495e-02	-3.854351e-01	4.505001e-01	-4.179676e-01	3.705747e-01	-1.222607e-01	1.358705e+00	5.570920e-01	8.016133e-01
155           	7.541370e-01	7.465181e-01	7.618929e-03	6.121614e-02	-3.884204e-01	4.496366e-01	-4.190285e-01	3.694496e-01	-1.231924e-01	1.356800e+00	5.552078e-01	8.015925e-01
156           	7.528851e-01	7.449361e-01	7.948985e-03	5.813833e-02	-3.910050e-01	4.491433e-01	-4.200742e-01	3.684936e-01	-1.240300e-01	1.355246e+00	5.535928e-01	8.016527e-01
157           	7.514069e-01	7.434225e-01	7.984328e-03	5.593449e-02	-3.930275e-01	4.489620e-01	-4.209948e-01	3.677191e-01	-1.247802e-01	1.353946e+00	5.521928e-01	8.017532e-01
158           	7.496915e-01	7.419218e-01	7.769668e-03	5.468837e-02	-3.943519e-01	4.490402e-01	-4.216961e-01	3.670761e-01	-1.254229e-01	1.352650e+00	5.509023e-01	8.017480e-01
159           	7.477346e-01	7.404290e-01	7.305566e-03	5.433400e-02	-3.949390e-01	4.492730e-01	-4.221060e-01	3.665617e-01	-1.259554e-01	1.351329e+00	5.497091e-01	8.016198e-01
160           	7.455517e-01	7.388639e-01	6.687727e-03	5.470386e-02	-3.947768e-01	4.494807e-01	-4.221287e-01	3.660881e-01	-1.264074e-01	1.349728e+00	5.484567e-01	8.012715e-01
161           	7.431980e-01	7.372501e-01	5.947987e-03	5.559831e-02	-3.939435e-01	4.495418e-01	-4.217427e-01	3.656510e-01	-1.268027e-01	1.347887e+00	5.471407e-01	8.007460e-01
162           	7.407226e-01	7.355276e-01	5.195043e-03	5.684936e-02	-3.925247e-01	4.493740e-01	-4.209494e-01	3.651663e-01	-1.271294e-01	1.345622e+00	5.456815e-01	7.999403e-01
163           	7.382273e-01	7.337621e-01	4.465175e-03	5.841039e-02	-3.906708e-01	4.490812e-01	-4.198760e-01	3.646485e-01	-1.273655e-01	1.342983e+00	5.441259e-01	7.988570e-01
164           	7.357769e-01	7.319498e-01	3.827098e-03	6.026535e-02	-3.884407e-01	4.487061e-01	-4.185734e-01	3.640614e-01	-1.274953e-01	1.339868e+00	5.424386e-01	7.974291e-01
165           	7.334973e-01	7.301515e-01	3.345842e-03	6.218135e-02	-3.860568e-01	4.482381e-01	-4.171474e-01	3.634028e-01	-1.275356e-01	1.336394e+00	5.406615e-01	7.957327e-01
166           	7.315128e-01	7.284321e-01	3.080775e-03	6.403207e-02	-3.836387e-01	4.476708e-01	-4.156547e-01	3.626756e-01	-1.275345e-01	1.332622e+00	5.387766e-01	7.938456e-01
167           	7.298923e-01	7.268640e-01	3.028321e-03	6.571598e-02	-3.813735e-01	4.470895e-01	-4.142315e-01	3.619178e-01	-1.275321e-01	1.328733e+00	5.368343e-01	7.918985e-01