# Force and moment coefficients
# dragDir     : (1.000000e+00 0.000000e+00 0.000000e+00)
# sideDir     : (0.000000e+00 1.000000e+00 0.000000e+00)
# liftDir     : (0.000000e+00 0.000000e+00 1.000000e+00)
# rollAxis    : (1.000000e+00 0.000000e+00 0.000000e+00)
# pitchAxis   : (0.000000e+00 1.000000e+00 0.000000e+00)
# yawAxis     : (0.000000e+00 0.000000e+00 1.000000e+00)
# magUInf     : 1.750000e+01
# lRef        : 1.854000e+00
# Aref        : 6.450000e-01
# CofR        : (1.000000e+00 0.000000e+00 0.000000e+00)
#
# Time        	Cd            	Cd(f)         	Cd(r)         	Cl            	Cl(f)         	Cl(r)         	CmPitch       	CmRoll        	CmYaw         	Cs            	Cs(f)         	Cs(r)         
1             	2.456887e-01	-1.322122e-01	3.779009e-01	-6.639598e-01	-9.122710e-01	2.483111e-01	-5.802911e-01	-2.550566e-01	-2.289825e-01	5.000523e-01	2.104367e-02	4.790087e-01
2             	3.854018e-01	-2.237029e-01	6.091047e-01	-4.425614e-01	-6.650485e-01	2.224871e-01	-4.437678e-01	-4.164038e-01	-5.749613e-01	1.195059e+00	2.256842e-02	1.172491e+00
3             	5.219092e-01	-3.010887e-01	8.229979e-01	-2.213662e-01	-4.305057e-01	2.091394e-01	-3.198225e-01	-5.620433e-01	-8.920149e-01	1.830358e+00	2.316398e-02	1.807194e+00
4             	5.877850e-01	-3.573564e-01	9.451414e-01	-5.040645e-02	-2.688047e-01	2.183983e-01	-2.436015e-01	-6.512489e-01	-1.086229e+00	2.234509e+00	3.102590e-02	2.203484e+00
5             	5.576505e-01	-3.936090e-01	9.512595e-01	5.275033e-02	-1.978389e-01	2.505892e-01	-2.242140e-01	-6.724343e-01	-1.130754e+00	2.358452e+00	4.847167e-02	2.309980e+00
6             	4.489013e-01	-4.123174e-01	8.612188e-01	1.016228e-01	-1.965346e-01	2.981574e-01	-2.473460e-01	-6.367681e-01	-1.053641e+00	2.251510e+00	7.211339e-02	2.179396e+00
7             	3.059775e-01	-4.168859e-01	7.228634e-01	1.136262e-01	-2.363681e-01	3.499943e-01	-2.931812e-01	-5.698747e-01	-9.122587e-01	2.015353e+00	9.541766e-02	1.919935e+00
8             	1.778783e-01	-4.088406e-01	5.867188e-01	1.196868e-01	-2.793319e-01	3.990187e-01	-3.391753e-01	-4.977797e-01	-7.674822e-01	1.759734e+00	1.123847e-01	1.647349e+00
9             	1.007250e-01	-3.910205e-01	4.917455e-01	1.342282e-01	-3.013996e-01	4.356278e-01	-3.685137e-01	-4.413830e-01	-6.636932e-01	1.566531e+00	1.195721e-01	1.446959e+00
10            	8.825728e-02	-3.670947e-01	4.553520e-01	1.588673e-01	-2.933200e-01	4.521874e-01	-3.727537e-01	-4.112234e-01	-6.201709e-01	1.473754e+00	1.167059e-01	1.357048e+00
11            	1.302981e-01	-3.407944e-01	4.710924e-01	1.958679e-01	-2.552811e-01	4.511490e-01	-3.532150e-01	-4.059434e-01	-6.321958e-01	1.477808e+00	1.067084e-01	1.371100e+00
12            	2.030486e-01	-3.168176e-01	5.198662e-01	2.378469e-01	-1.994321e-01	4.372790e-01	-3.183556e-01	-4.183419e-01	-6.810859e-01	1.547775e+00	9.280168e-02	1.454973e+00
13            	2.786342e-01	-2.979438e-01	5.765780e-01	2.830379e-01	-1.354416e-01	4.184795e-01	-2.769606e-01	-4.372609e-01	-7.425763e-01	1.642755e+00	7.880142e-02	1.563954e+00
14            	3.357200e-01	-2.862516e-01	6.219716e-01	3.228355e-01	-7.671165e-02	3.995472e-01	-2.381294e-01	-4.541116e-01	-7.962966e-01	1.726519e+00	6.696266e-02	1.659556e+00
15            	3.635544e-01	-2.813688e-01	6.449232e-01	3.554970e-01	-2.704752e-02	3.825445e-01	-2.047960e-01	-4.631460e-01	-8.307329e-01	1.777969e+00	5.825138e-02	1.719717e+00
16            	3.625935e-01	-2.813981e-01	6.439915e-01	3.816902e-01	1.293591e-02	3.687543e-01	-1.779092e-01	-4.626948e-01	-8.433207e-01	1.791722e+00	5.254014e-02	1.739182e+00
17            	3.414871e-01	-2.839613e-01	6.254483e-01	4.020554e-01	4.402500e-02	3.580305e-01	-1.570027e-01	-4.547048e-01	-8.386531e-01	1.775393e+00	4.904316e-02	1.726349e+00
18            	3.125105e-01	-2.865086e-01	5.990191e-01	4.180148e-01	6.854580e-02	3.494690e-01	-1.404616e-01	-4.427638e-01	-8.246859e-01	1.742899e+00	4.676342e-02	1.696135e+00
19            	2.867980e-01	-2.872845e-01	5.740826e-01	4.305276e-01	8.835502e-02	3.421726e-01	-1.269088e-01	-4.306835e-01	-8.092698e-01	1.708290e+00	4.487494e-02	1.663415e+00
20            	2.717169e-01	-2.852535e-01	5.569703e-01	4.420508e-01	1.070508e-01	3.350000e-01	-1.139746e-01	-4.211119e-01	-7.982645e-01	1.682210e+00	4.284033e-02	1.639369e+00
21            	2.695619e-01	-2.802087e-01	5.497705e-01	4.549950e-01	1.277955e-01	3.271995e-01	-9.970200e-02	-4.149896e-01	-7.941458e-01	1.669161e+00	4.043484e-02	1.628726e+00
22            	2.783462e-01	-2.727877e-01	5.511339e-01	4.711833e-01	1.525004e-01	3.186829e-01	-8.309127e-02	-4.119608e-01	-7.966378e-01	1.668743e+00	3.773358e-02	1.631009e+00
23            	2.936198e-01	-2.639693e-01	5.575891e-01	4.916520e-01	1.823153e-01	3.093367e-01	-6.351067e-02	-4.107792e-01	-8.036092e-01	1.676981e+00	3.488138e-02	1.642100e+00
24            	3.102805e-01	-2.550319e-01	5.653123e-01	5.150070e-01	2.155500e-01	2.994570e-01	-4.195349e-02	-4.101721e-01	-8.121886e-01	1.688483e+00	3.205279e-02	1.656430e+00
25            	3.243475e-01	-2.469350e-01	5.712825e-01	5.395825e-01	2.502185e-01	2.893640e-01	-1.957275e-02	-4.091087e-01	-8.199268e-01	1.698681e+00	2.941383e-02	1.669267e+00
26            	3.337202e-01	-2.402063e-01	5.739265e-01	5.635098e-01	2.838290e-01	2.796808e-01	2.074088e-03	-4.070664e-01	-8.253159e-01	1.704775e+00	2.707139e-02	1.677703e+00
27            	3.383074e-01	-2.349452e-01	5.732526e-01	5.850136e-01	3.142386e-01	2.707750e-01	2.173178e-02	-4.040989e-01	-8.279201e-01	1.705949e+00	2.505430e-02	1.680894e+00
28            	3.394848e-01	-2.309383e-01	5.704231e-01	6.026782e-01	3.397332e-01	2.629449e-01	3.839415e-02	-4.006807e-01	-8.282646e-01	1.703133e+00	2.330173e-02	1.679831e+00
29            	3.392145e-01	-2.276641e-01	5.668786e-01	6.162758e-01	3.603885e-01	2.558873e-01	5.225058e-02	-3.972713e-01	-8.272217e-01	1.697878e+00	2.171721e-02	1.676161e+00
30            	3.392861e-01	-2.247217e-01	5.640078e-01	6.258747e-01	3.766335e-01	2.492413e-01	6.369609e-02	-3.943648e-01	-8.257749e-01	1.692074e+00	2.026197e-02	1.671812e+00
31            	3.409110e-01	-2.217864e-01	5.626975e-01	6.318815e-01	3.888417e-01	2.430398e-01	7.290098e-02	-3.922419e-01	-8.244880e-01	1.686923e+00	1.897349e-02	1.667950e+00
32            	3.445572e-01	-2.185842e-01	5.631414e-01	6.357785e-01	3.988111e-01	2.369674e-01	8.092184e-02	-3.908628e-01	-8.239473e-01	1.683350e+00	1.772784e-02	1.665622e+00
33            	3.499305e-01	-2.153344e-01	5.652648e-01	6.370222e-01	4.057315e-01	2.312907e-01	8.722044e-02	-3.902996e-01	-8.240560e-01	1.681222e+00	1.655514e-02	1.664667e+00
34            	3.563954e-01	-2.120499e-01	5.684453e-01	6.369196e-01	4.109961e-01	2.259236e-01	9.253625e-02	-3.902476e-01	-8.247759e-01	1.680335e+00	1.539154e-02	1.664943e+00
35            	3.631039e-01	-2.091202e-01	5.722241e-01	6.348912e-01	4.141593e-01	2.207318e-01	9.671374e-02	-3.906721e-01	-8.258249e-01	1.680155e+00	1.425270e-02	1.665902e+00
36            	3.694186e-01	-2.065893e-01	5.760079e-01	6.315993e-01	4.156994e-01	2.159000e-01	9.989971e-02	-3.912986e-01	-8.269831e-01	1.680175e+00	1.310427e-02	1.667070e+00
37            	3.750339e-01	-2.045699e-01	5.796038e-01	6.268254e-01	4.153045e-01	2.115209e-01	1.018918e-01	-3.920868e-01	-8.281270e-01	1.680103e+00	1.192471e-02	1.668179e+00
38            	3.798753e-01	-2.029599e-01	5.828353e-01	6.210662e-01	4.136098e-01	2.074563e-01	1.030767e-01	-3.928976e-01	-8.291567e-01	1.679718e+00	1.070233e-02	1.669016e+00
39            	3.841132e-01	-2.018104e-01	5.859237e-01	6.137565e-01	4.099423e-01	2.038142e-01	1.030640e-01	-3.938671e-01	-8.301331e-01	1.679143e+00	9.438589e-03	1.669705e+00
40            	3.880206e-01	-2.009512e-01	5.889718e-01	6.051829e-01	4.049101e-01	2.002728e-01	1.023186e-01	-3.949615e-01	-8.310833e-01	1.678391e+00	8.112441e-03	1.670279e+00
41            	3.918384e-01	-2.002333e-01	5.920717e-01	5.959120e-01	3.990396e-01	1.968723e-01	1.010837e-01	-3.961525e-01	-8.321590e-01	1.677749e+00	6.715714e-03	1.671034e+00
42            	3.956901e-01	-1.994428e-01	5.951329e-01	5.869198e-01	3.935354e-01	1.933844e-01	1.000755e-01	-3.972879e-01	-8.334175e-01	1.677283e+00	5.224062e-03	1.672059e+00
43            	3.995838e-01	-1.986438e-01	5.982276e-01	5.781134e-01	3.886868e-01	1.894265e-01	9.963015e-02	-3.984357e-01	-8.349554e-01	1.677153e+00	3.621218e-03	1.673532e+00
44            	4.034713e-01	-1.978004e-01	6.012717e-01	5.697983e-01	3.848604e-01	1.849378e-01	9.996129e-02	-3.995360e-01	-8.366707e-01	1.677242e+00	1.950193e-03	1.675292e+00
45            	4.072851e-01	-1.970480e-01	6.043330e-01	5.616087e-01	3.818336e-01	1.797750e-01	1.010293e-01	-4.006905e-01	-8.385659e-01	1.677618e+00	2.430149e-04	1.677375e+00
46            	4.109255e-01	-1.964464e-01	6.073719e-01	5.532919e-01	3.792296e-01	1.740622e-01	1.025837e-01	-4.019092e-01	-8.404543e-01	1.678044e+00	-1.432429e-03	1.679476e+00
47            	4.143438e-01	-1.961836e-01	6.105274e-01	5.439851e-01	3.762920e-01	1.676931e-01	1.042994e-01	-4.033555e-01	-8.423013e-01	1.678518e+00	-3.042273e-03	1.681560e+00
48            	4.175517e-01	-1.962459e-01	6.137976e-01	5.334970e-01	3.727393e-01	1.607576e-01	1.059909e-01	-4.050217e-01	-8.439655e-01	1.678799e+00	-4.565816e-03	1.683365e+00
49            	4.205863e-01	-1.967600e-01	6.173463e-01	5.211122e-01	3.677945e-01	1.533177e-01	1.072384e-01	-4.070532e-01	-8.454180e-01	1.678922e+00	-5.957116e-03	1.684879e+00
50            	4.234980e-01	-1.976016e-01	6.210996e-01	5.072229e-01	3.614914e-01	1.457315e-01	1.078799e-01	-4.093506e-01	-8.466093e-01	1.678756e+00	-7.231475e-03	1.685987e+00
51            	4.263672e-01	-1.986891e-01	6.250563e-01	4.921574e-01	3.542395e-01	1.379178e-01	1.081608e-01	-4.118727e-01	-8.476204e-01	1.678365e+00	-8.437866e-03	1.686803e+00
52            	4.292742e-01	-1.998353e-01	6.291094e-01	4.766846e-01	3.463665e-01	1.303181e-01	1.080242e-01	-4.144724e-01	-8.484502e-01	1.677735e+00	-9.582831e-03	1.687317e+00
53            	4.323704e-01	-2.008901e-01	6.332606e-01	4.613494e-01	3.382812e-01	1.230682e-01	1.076065e-01	-4.170753e-01	-8.491844e-01	1.676968e+00	-1.070047e-02	1.687668e+00
54            	4.357586e-01	-2.017758e-01	6.375344e-01	4.462260e-01	3.299678e-01	1.162582e-01	1.068548e-01	-4.196551e-01	-8.498320e-01	1.676018e+00	-1.182306e-02	1.687841e+00
55            	4.395066e-01	-2.024858e-01	6.419924e-01	4.311647e-01	3.211907e-01	1.099740e-01	1.056083e-01	-4.222391e-01	-8.503780e-01	1.674804e+00	-1.297609e-02	1.687780e+00
56            	4.436001e-01	-2.029822e-01	6.465822e-01	4.162499e-01	3.117280e-01	1.045219e-01	1.036030e-01	-4.247822e-01	-8.507429e-01	1.673183e+00	-1.415138e-02	1.687334e+00
57            	4.481410e-01	-2.031814e-01	6.513225e-01	4.015824e-01	3.015876e-01	9.999480e-02	1.007964e-01	-4.272520e-01	-8.508969e-01	1.671040e+00	-1.537703e-02	1.686417e+00
58            	4.531871e-01	-2.029832e-01	6.561703e-01	3.874473e-01	2.909508e-01	9.649649e-02	9.722715e-02	-4.295767e-01	-8.508310e-01	1.668306e+00	-1.667777e-02	1.684984e+00
59            	4.588181e-01	-2.023273e-01	6.611453e-01	3.740141e-01	2.801091e-01	9.390506e-02	9.310200e-02	-4.317363e-01	-8.506000e-01	1.665010e+00	-1.809495e-02	1.683105e+00
60            	4.650511e-01	-2.012161e-01	6.662673e-01	3.612783e-01	2.692517e-01	9.202655e-02	8.861259e-02	-4.337417e-01	-8.502437e-01	1.661199e+00	-1.964433e-02	1.680843e+00
61            	4.718065e-01	-1.996912e-01	6.714977e-01	3.494395e-01	2.587890e-01	9.065052e-02	8.406924e-02	-4.355944e-01	-8.498677e-01	1.657026e+00	-2.135472e-02	1.678381e+00
62            	4.789281e-01	-1.978416e-01	6.767697e-01	3.384747e-01	2.487676e-01	8.970707e-02	7.953029e-02	-4.373057e-01	-8.495260e-01	1.652674e+00	-2.318915e-02	1.675863e+00
63            	4.862256e-01	-1.957155e-01	6.819411e-01	3.288951e-01	2.396825e-01	8.921258e-02	7.523496e-02	-4.388283e-01	-8.492999e-01	1.648393e+00	-2.510327e-02	1.673496e+00
64            	4.935100e-01	-1.934312e-01	6.869412e-01	3.205031e-01	2.314087e-01	8.909433e-02	7.115720e-02	-4.401862e-01	-8.492053e-01	1.644311e+00	-2.704958e-02	1.671361e+00
65            	5.006072e-01	-1.911134e-01	6.917206e-01	3.130968e-01	2.237871e-01	8.930974e-02	6.723866e-02	-4.414170e-01	-8.492892e-01	1.640541e+00	-2.901867e-02	1.669560e+00
66            	5.073480e-01	-1.888020e-01	6.961500e-01	3.067292e-01	2.169087e-01	8.982052e-02	6.354407e-02	-4.424760e-01	-8.494864e-01	1.637071e+00	-3.095083e-02	1.668022e+00
67            	5.136335e-01	-1.864174e-01	7.000509e-01	3.021699e-01	2.113914e-01	9.077846e-02	6.030647e-02	-4.432341e-01	-8.497881e-01	1.634022e+00	-3.277707e-02	1.666799e+00
68            	5.194419e-01	-1.838461e-01	7.032880e-01	3.001141e-01	2.079416e-01	9.217253e-02	5.788453e-02	-4.435670e-01	-8.501992e-01	1.631460e+00	-3.446910e-02	1.665929e+00
69            	5.248081e-01	-1.810949e-01	7.059030e-01	3.005453e-01	2.064909e-01	9.405436e-02	5.621829e-02	-4.434990e-01	-8.507752e-01	1.629517e+00	-3.601676e-02	1.665534e+00
70            	5.297194e-01	-1.781364e-01	7.078558e-01	3.037143e-01	2.073373e-01	9.637700e-02	5.548015e-02	-4.429961e-01	-8.515001e-01	1.628248e+00	-3.737624e-02	1.665624e+00
71            	5.342084e-01	-1.749622e-01	7.091706e-01	3.095698e-01	2.104136e-01	9.915616e-02	5.562874e-02	-4.420664e-01	-8.523292e-01	1.627635e+00	-3.851195e-02	1.666146e+00
72            	5.382862e-01	-1.716485e-01	7.099348e-01	3.175995e-01	2.154818e-01	1.021177e-01	5.668204e-02	-4.407916e-01	-8.532192e-01	1.627683e+00	-3.937756e-02	1.667061e+00
73            	5.420418e-01	-1.682491e-01	7.102909e-01	3.272043e-01	2.221378e-01	1.050666e-01	5.853560e-02	-4.392700e-01	-8.541930e-01	1.628408e+00	-3.998902e-02	1.668397e+00
74            	5.454544e-01	-1.649085e-01	7.103629e-01	3.373918e-01	2.297369e-01	1.076549e-01	6.104098e-02	-4.376357e-01	-8.551951e-01	1.629681e+00	-4.035439e-02	1.670036e+00
75            	5.484960e-01	-1.617588e-01	7.102548e-01	3.472460e-01	2.376169e-01	1.096291e-01	6.399392e-02	-4.360068e-01	-8.561974e-01	1.631330e+00	-4.053224e-02	1.671863e+00
76            	5.511505e-01	-1.589598e-01	7.101103e-01	3.556466e-01	2.449939e-01	1.106528e-01	6.717055e-02	-4.345350e-01	-8.571701e-01	1.633144e+00	-4.059829e-02	1.673742e+00
77            	5.534527e-01	-1.565668e-01	7.100195e-01	3.619907e-01	2.513659e-01	1.106247e-01	7.037058e-02	-4.332931e-01	-8.581205e-01	1.634953e+00	-4.064399e-02	1.675597e+00
78            	5.554448e-01	-1.545815e-01	7.100264e-01	3.659454e-01	2.563690e-01	1.095764e-01	7.339629e-02	-4.323040e-01	-8.590375e-01	1.636595e+00	-4.073980e-02	1.677335e+00
79            	5.572292e-01	-1.529366e-01	7.101657e-01	3.677309e-01	2.600686e-01	1.076623e-01	7.620318e-02	-4.315512e-01	-8.599540e-01	1.638027e+00	-4.094054e-02	1.678968e+00
80            	5.588760e-01	-1.515591e-01	7.104352e-01	3.674886e-01	2.624322e-01	1.050564e-01	7.868790e-02	-4.309972e-01	-8.607829e-01	1.639119e+00	-4.122351e-02	1.680342e+00
81            	5.604857e-01	-1.504027e-01	7.108884e-01	3.654144e-01	2.635191e-01	1.018953e-01	8.081192e-02	-4.306456e-01	-8.615284e-01	1.639894e+00	-4.158161e-02	1.681475e+00
82            	5.621146e-01	-1.494531e-01	7.115677e-01	3.613932e-01	2.631986e-01	9.819462e-02	8.250198e-02	-4.305104e-01	-8.621272e-01	1.640255e+00	-4.199956e-02	1.682255e+00
83            	5.638528e-01	-1.487198e-01	7.125726e-01	3.554466e-01	2.615815e-01	9.386511e-02	8.385819e-02	-4.306462e-01	-8.626414e-01	1.640336e+00	-4.247355e-02	1.682809e+00
84            	5.656398e-01	-1.481838e-01	7.138236e-01	3.479169e-01	2.588672e-01	8.904965e-02	8.490880e-02	-4.310037e-01	-8.630610e-01	1.640186e+00	-4.296795e-02	1.683154e+00
85            	5.674512e-01	-1.478315e-01	7.152827e-01	3.392392e-01	2.554108e-01	8.382841e-02	8.579121e-02	-4.315571e-01	-8.634416e-01	1.639995e+00	-4.344388e-02	1.683439e+00
86            	5.692798e-01	-1.476126e-01	7.168924e-01	3.297992e-01	2.513749e-01	7.842433e-02	8.647528e-02	-4.322525e-01	-8.637869e-01	1.639773e+00	-4.390065e-02	1.683673e+00
87            	5.711144e-01	-1.475134e-01	7.186278e-01	3.199602e-01	2.469835e-01	7.297673e-02	8.700338e-02	-4.330706e-01	-8.641509e-01	1.639603e+00	-4.434929e-02	1.683952e+00
88            	5.729632e-01	-1.475069e-01	7.204701e-01	3.099473e-01	2.423540e-01	6.759339e-02	8.738028e-02	-4.339885e-01	-8.645619e-01	1.639487e+00	-4.481838e-02	1.684306e+00
89            	5.748517e-01	-1.475538e-01	7.224055e-01	3.001642e-01	2.377603e-01	6.240396e-02	8.767815e-02	-4.349796e-01	-8.650857e-01	1.639521e+00	-4.532525e-02	1.684846e+00
90            	5.767433e-01	-1.475978e-01	7.243411e-01	2.909028e-01	2.333458e-01	5.755694e-02	8.789445e-02	-4.359694e-01	-8.656815e-01	1.639566e+00	-4.589867e-02	1.685464e+00
91            	5.785677e-01	-1.476693e-01	7.262370e-01	2.823055e-01	2.291361e-01	5.316939e-02	8.798333e-02	-4.369532e-01	-8.663662e-01	1.639660e+00	-4.653647e-02	1.686196e+00
92            	5.802782e-01	-1.477415e-01	7.280198e-01	2.745145e-01	2.250989e-01	4.941565e-02	8.784160e-02	-4.378807e-01	-8.670652e-01	1.639692e+00	-4.721929e-02	1.686911e+00
93            	5.818035e-01	-1.478427e-01	7.296462e-01	2.676624e-01	2.213019e-01	4.636049e-02	8.747071e-02	-4.387444e-01	-8.677578e-01	1.639699e+00	-4.790824e-02	1.687607e+00
94            	5.831022e-01	-1.479908e-01	7.310929e-01	2.616695e-01	2.176110e-01	4.405853e-02	8.677621e-02	-4.395419e-01	-8.683683e-01	1.639612e+00	-4.856230e-02	1.688174e+00
95            	5.841270e-01	-1.482317e-01	7.323586e-01	2.564683e-01	2.139516e-01	4.251667e-02	8.571746e-02	-4.402951e-01	-8.688548e-01	1.639429e+00	-4.914012e-02	1.688570e+00
96            	5.849246e-01	-1.485040e-01	7.334287e-01	2.521026e-01	2.104084e-01	4.169426e-02	8.435705e-02	-4.409663e-01	-8.691091e-01	1.639029e+00	-4.959483e-02	1.688623e+00
97            	5.854942e-01	-1.487732e-01	7.342674e-01	2.487849e-01	2.071380e-01	4.164694e-02	8.274554e-02	-4.415203e-01	-8.690996e-01	1.638421e+00	-4.988892e-02	1.688310e+00
98            	5.859606e-01	-1.489433e-01	7.349040e-01	2.467460e-01	2.043147e-01	4.243130e-02	8.094172e-02	-4.419237e-01	-8.688799e-01	1.637675e+00	-5.004245e-02	1.687717e+00
99            	5.863154e-01	-1.490064e-01	7.353219e-01	2.460789e-01	2.020668e-01	4.401214e-02	7.902732e-02	-4.421641e-01	-8.684355e-01	1.636810e+00	-5.003030e-02	1.686841e+00
100           	5.866182e-01	-1.489132e-01	7.355314e-01	2.467914e-01	2.004839e-01	4.630759e-02	7.708814e-02	-4.422223e-01	-8.677531e-01	1.635801e+00	-4.985266e-02	1.685654e+00
101           	5.868291e-01	-1.486949e-01	7.355240e-01	2.488864e-01	1.995974e-01	4.928899e-02	7.515421e-02	-4.421095e-01	-8.668828e-01	1.634759e+00	-4.950327e-02	1.684262e+00
102           	5.870012e-01	-1.483413e-01	7.353425e-01	2.521984e-01	1.993629e-01	5.283547e-02	7.326372e-02	-4.418419e-01	-8.658743e-01	1.633757e+00	-4.899593e-02	1.682753e+00
103           	5.871028e-01	-1.478871e-01	7.349899e-01	2.565043e-01	1.995886e-01	5.691570e-02	7.133643e-02	-4.414385e-01	-8.647574e-01	1.632845e+00	-4.833470e-02	1.681180e+00
104           	5.871018e-01	-1.473597e-01	7.344615e-01	2.616096e-01	2.002506e-01	6.135899e-02	6.944579e-02	-4.409106e-01	-8.635468e-01	1.632011e+00	-4.754116e-02	1.679552e+00
105           	5.869368e-01	-1.467913e-01	7.337281e-01	2.674652e-01	2.014657e-01	6.599950e-02	6.773311e-02	-4.402597e-01	-8.623026e-01	1.631279e+00	-4.666327e-02	1.677942e+00
106           	5.866380e-01	-1.461693e-01	7.328074e-01	2.739524e-01	2.033179e-01	7.063443e-02	6.634175e-02	-4.394884e-01	-8.610458e-01	1.630612e+00	-4.573978e-02	1.676352e+00
107           	5.861615e-01	-1.454784e-01	7.316399e-01	2.812100e-01	2.062238e-01	7.498615e-02	6.561885e-02	-4.385592e-01	-8.597431e-01	1.629949e+00	-4.476850e-02	1.674718e+00
108           	5.855972e-01	-1.446796e-01	7.302768e-01	2.891119e-01	2.102363e-01	7.887560e-02	6.568037e-02	-4.374782e-01	-8.584270e-01	1.629265e+00	-4.379463e-02	1.673059e+00
109           	5.849611e-01	-1.437449e-01	7.287061e-01	2.976638e-01	2.155939e-01	8.206984e-02	6.676204e-02	-4.362255e-01	-8.571185e-01	1.628503e+00	-4.286716e-02	1.671370e+00
110           	5.842971e-01	-1.427020e-01	7.269991e-01	3.064898e-01	2.220820e-01	8.440782e-02	6.883710e-02	-4.348505e-01	-8.558850e-01	1.627640e+00	-4.206508e-02	1.669705e+00
111           	5.835618e-01	-1.415725e-01	7.251343e-01	3.154705e-01	2.296723e-01	8.579812e-02	7.193711e-02	-4.333534e-01	-8.547156e-01	1.626584e+00	-4.142382e-02	1.668007e+00
112           	5.827341e-01	-1.403903e-01	7.231244e-01	3.243326e-01	2.380890e-01	8.624355e-02	7.592274e-02	-4.317573e-01	-8.536118e-01	1.625254e+00	-4.098480e-02	1.666239e+00
113           	5.818091e-01	-1.391642e-01	7.209733e-01	3.330057e-01	2.471409e-01	8.586481e-02	8.063804e-02	-4.300687e-01	-8.526213e-01	1.623706e+00	-4.076823e-02	1.664474e+00
114           	5.808587e-01	-1.379079e-01	7.187666e-01	3.409640e-01	2.561670e-01	8.479695e-02	8.568504e-02	-4.283372e-01	-8.517698e-01	1.621933e+00	-4.080326e-02	1.662736e+00
115           	5.799416e-01	-1.365929e-01	7.165345e-01	3.481672e-01	2.649153e-01	8.325192e-02	9.083170e-02	-4.265637e-01	-8.510850e-01	1.619951e+00	-4.110958e-02	1.661060e+00
116           	5.791540e-01	-1.351806e-01	7.143346e-01	3.544333e-01	2.730759e-01	8.135741e-02	9.585926e-02	-4.247576e-01	-8.505880e-01	1.617735e+00	-4.172046e-02	1.659456e+00
117           	5.784516e-01	-1.336719e-01	7.121235e-01	3.600052e-01	2.807429e-01	7.926223e-02	1.007404e-01	-4.228977e-01	-8.502549e-01	1.615310e+00	-4.259992e-02	1.657910e+00
118           	5.778164e-01	-1.320476e-01	7.098640e-01	3.650315e-01	2.880654e-01	7.696614e-02	1.055496e-01	-4.209558e-01	-8.500765e-01	1.612636e+00	-4.375870e-02	1.656394e+00
119           	5.771552e-01	-1.303958e-01	7.075510e-01	3.695633e-01	2.950384e-01	7.452481e-02	1.102568e-01	-4.189734e-01	-8.500477e-01	1.609786e+00	-4.515463e-02	1.654941e+00
120           	5.764323e-01	-1.287777e-01	7.052100e-01	3.734745e-01	3.015817e-01	7.189278e-02	1.148445e-01	-4.169938e-01	-8.501475e-01	1.606772e+00	-4.676156e-02	1.653533e+00
121           	5.756296e-01	-1.271908e-01	7.028203e-01	3.771415e-01	3.080667e-01	6.907478e-02	1.194960e-01	-4.150056e-01	-8.503901e-01	1.603670e+00	-4.855512e-02	1.652225e+00
122           	5.747710e-01	-1.256698e-01	7.004408e-01	3.805526e-01	3.144373e-01	6.611528e-02	1.241610e-01	-4.130553e-01	-8.507834e-01	1.600570e+00	-5.049848e-02	1.651068e+00
123           	5.739222e-01	-1.241750e-01	6.980972e-01	3.840223e-01	3.209911e-01	6.303120e-02	1.289800e-01	-4.111361e-01	-8.513705e-01	1.597638e+00	-5.255160e-02	1.650189e+00
124           	5.731767e-01	-1.226612e-01	6.958379e-01	3.875518e-01	3.276874e-01	5.986438e-02	1.339115e-01	-4.092496e-01	-8.520762e-01	1.594881e+00	-5.463545e-02	1.649517e+00
125           	5.726033e-01	-1.211259e-01	6.937292e-01	3.911120e-01	3.344273e-01	5.668474e-02	1.388713e-01	-4.074276e-01	-8.528984e-01	1.592393e+00	-5.670198e-02	1.649095e+00
126           	5.722762e-01	-1.195513e-01	6.918275e-01	3.944899e-01	3.409118e-01	5.357813e-02	1.436668e-01	-4.056894e-01	-8.537116e-01	1.590041e+00	-5.869130e-02	1.648732e+00
127           	5.722500e-01	-1.179259e-01	6.901759e-01	3.977051e-01	3.469942e-01	5.071087e-02	1.481417e-01	-4.040509e-01	-8.544669e-01	1.587814e+00	-6.055973e-02	1.648374e+00
128           	5.725721e-01	-1.162646e-01	6.888367e-01	4.004823e-01	3.522399e-01	4.824243e-02	1.519987e-01	-4.025507e-01	-8.551089e-01	1.585700e+00	-6.225893e-02	1.647959e+00
129           	5.732377e-01	-1.146106e-01	6.878483e-01	4.027150e-01	3.564281e-01	4.628686e-02	1.550706e-01	-4.012295e-01	-8.556591e-01	1.583760e+00	-6.377922e-02	1.647539e+00
130           	5.742571e-01	-1.129984e-01	6.872555e-01	4.041027e-01	3.591849e-01	4.491778e-02	1.571336e-01	-4.001270e-01	-8.560828e-01	1.581982e+00	-6.509170e-02	1.647074e+00
131           	5.756277e-01	-1.114516e-01	6.870793e-01	4.046317e-01	3.604302e-01	4.420147e-02	1.581144e-01	-3.992654e-01	-8.563861e-01	1.580449e+00	-6.616167e-02	1.646610e+00
132           	5.773137e-01	-1.099847e-01	6.872984e-01	4.042777e-01	3.601563e-01	4.412142e-02	1.580174e-01	-3.986415e-01	-8.565640e-01	1.579140e+00	-6.699399e-02	1.646134e+00
133           	5.792846e-01	-1.086079e-01	6.878925e-01	4.031341e-01	3.585200e-01	4.461417e-02	1.569529e-01	-3.982502e-01	-8.566546e-01	1.578075e+00	-6.761708e-02	1.645692e+00
134           	5.814473e-01	-1.072674e-01	6.887147e-01	4.016710e-01	3.561163e-01	4.555475e-02	1.552808e-01	-3.979910e-01	-8.566246e-01	1.577159e+00	-6.804530e-02	1.645204e+00
135           	5.836966e-01	-1.059523e-01	6.896488e-01	4.002422e-01	3.533985e-01	4.684376e-02	1.532773e-01	-3.978006e-01	-8.564948e-01	1.576344e+00	-6.832292e-02	1.644667e+00
136           	5.859654e-01	-1.046108e-01	6.905762e-01	3.992518e-01	3.508262e-01	4.842557e-02	1.512003e-01	-3.975935e-01	-8.562590e-01	1.575546e+00	-6.848588e-02	1.644032e+00
137           	5.881520e-01	-1.032591e-01	6.914110e-01	3.988620e-01	3.486525e-01	5.020955e-02	1.492215e-01	-3.973350e-01	-8.559615e-01	1.574768e+00	-6.857736e-02	1.643346e+00
138           	5.901497e-01	-1.018815e-01	6.920312e-01	3.992751e-01	3.471898e-01	5.208524e-02	1.475523e-01	-3.969563e-01	-8.555628e-01	1.573946e+00	-6.858965e-02	1.642536e+00
139           	5.918637e-01	-1.005251e-01	6.923889e-01	4.005338e-01	3.465270e-01	5.400680e-02	1.462601e-01	-3.964570e-01	-8.551233e-01	1.573198e+00	-6.852447e-02	1.641722e+00
140           	5.931883e-01	-9.925453e-02	6.924429e-01	4.023141e-01	3.465028e-01	5.581126e-02	1.453458e-01	-3.958487e-01	-8.546376e-01	1.572487e+00	-6.839394e-02	1.640881e+00
141           	5.940801e-01	-9.810369e-02	6.921838e-01	4.045589e-01	3.471115e-01	5.744745e-02	1.448320e-01	-3.951438e-01	-8.541415e-01	1.571886e+00	-6.819870e-02	1.640084e+00
142           	5.945098e-01	-9.715848e-02	6.916683e-01	4.066243e-01	3.479363e-01	5.868798e-02	1.446242e-01	-3.944134e-01	-8.536245e-01	1.571341e+00	-6.795383e-02	1.639295e+00
143           	5.945586e-01	-9.641398e-02	6.909725e-01	4.084480e-01	3.490251e-01	5.942288e-02	1.448011e-01	-3.936933e-01	-8.531625e-01	1.570924e+00	-6.770079e-02	1.638624e+00
144           	5.941812e-01	-9.596204e-02	6.901433e-01	4.094179e-01	3.499006e-01	5.951728e-02	1.451917e-01	-3.930526e-01	-8.527177e-01	1.570490e+00	-6.747260e-02	1.637963e+00
145           	5.934079e-01	-9.578843e-02	6.891963e-01	4.096194e-01	3.506830e-01	5.893638e-02	1.458733e-01	-3.924924e-01	-8.522325e-01	1.570022e+00	-6.722161e-02	1.637243e+00
146           	5.922513e-01	-9.589590e-02	6.881472e-01	4.088436e-01	3.511331e-01	5.771044e-02	1.467114e-01	-3.920215e-01	-8.516582e-01	1.569392e+00	-6.696202e-02	1.636354e+00
147           	5.908085e-01	-9.623007e-02	6.870386e-01	4.072639e-01	3.514072e-01	5.585675e-02	1.477752e-01	-3.916343e-01	-8.509933e-01	1.568650e+00	-6.666857e-02	1.635318e+00
148           	5.891133e-01	-9.678397e-02	6.858973e-01	4.048697e-01	3.513090e-01	5.356075e-02	1.488741e-01	-3.913406e-01	-8.502701e-01	1.567830e+00	-6.635482e-02	1.634185e+00
149           	5.872784e-01	-9.740837e-02	6.846868e-01	4.023393e-01	3.516189e-01	5.072038e-02	1.504492e-01	-3.910476e-01	-8.495497e-01	1.567062e+00	-6.601856e-02	1.633081e+00
150           	5.853078e-01	-9.806326e-02	6.833710e-01	3.998626e-01	3.523515e-01	4.751108e-02	1.524202e-01	-3.907172e-01	-8.488779e-01	1.566360e+00	-6.569788e-02	1.632058e+00
151           	5.832453e-01	-9.871669e-02	6.819620e-01	3.974579e-01	3.535051e-01	4.395287e-02	1.547761e-01	-3.903393e-01	-8.482260e-01	1.565724e+00	-6.536395e-02	1.631088e+00
152           	5.811247e-01	-9.936283e-02	6.804875e-01	3.950097e-01	3.547409e-01	4.026879e-02	1.572361e-01	-3.899252e-01	-8.475753e-01	1.565060e+00	-6.504529e-02	1.630105e+00
153           	5.790934e-01	-1.000022e-01	6.790956e-01	3.922996e-01	3.558124e-01	3.648726e-02	1.596625e-01	-3.895489e-01	-8.469953e-01	1.564489e+00	-6.475104e-02	1.629240e+00
154           	5.772121e-01	-1.005759e-01	6.777881e-01	3.895359e-01	3.567179e-01	3.281804e-02	1.619499e-01	-3.891820e-01	-8.464871e-01	1.563942e+00	-6.451603e-02	1.628458e+00
155           	5.755774e-01	-1.010749e-01	6.766522e-01	3.866575e-01	3.574101e-01	2.924734e-02	1.640814e-01	-3.888636e-01	-8.460584e-01	1.563464e+00	-6.432635e-02	1.627790e+00
156           	5.742189e-01	-1.014767e-01	6.756956e-01	3.837885e-01	3.578247e-01	2.596382e-02	1.659304e-01	-3.885861e-01	-8.457367e-01	1.563061e+00	-6.420605e-02	1.627267e+00
157           	5.732085e-01	-1.018386e-01	6.750471e-01	3.803978e-01	3.574859e-01	2.291185e-02	1.672870e-01	-3.884429e-01	-8.455232e-01	1.562784e+00	-6.413108e-02	1.626915e+00
158           	5.725726e-01	-1.021382e-01	6.747108e-01	3.765856e-01	3.564228e-01	2.016280e-02	1.681300e-01	-3.884245e-01	-8.454349e-01	1.562648e+00	-6.411077e-02	1.626759e+00
159           	5.723612e-01	-1.024202e-01	6.747813e-01	3.720437e-01	3.543570e-01	1.768665e-02	1.683352e-01	-3.886007e-01	-8.454955e-01	1.562736e+00	-6.412739e-02	1.626864e+00
160           	5.725876e-01	-1.026210e-01	6.752087e-01	3.669418e-01	3.514725e-01	1.546922e-02	1.680017e-01	-3.889149e-01	-8.456605e-01	1.562939e+00	-6.419122e-02	1.627130e+00
161           	5.733464e-01	-1.027170e-01	6.760633e-01	3.612740e-01	3.478679e-01	1.340616e-02	1.672309e-01	-3.893901e-01	-8.459550e-01	1.563333e+00	-6.428863e-02	1.627621e+00
162           	5.746192e-01	-1.026112e-01	6.772303e-01	3.555091e-01	3.439633e-01	1.154582e-02	1.662088e-01	-3.899207e-01	-8.462793e-01	1.563767e+00	-6.439568e-02	1.628163e+00
163           	5.764881e-01	-1.022186e-01	6.787067e-01	3.498628e-01	3.400607e-01	9.802115e-03	1.651293e-01	-3.904626e-01	-8.466308e-01	1.564233e+00	-6.451448e-02	1.628747e+00
164           	5.789299e-01	-1.014055e-01	6.803354e-01	3.449834e-01	3.367744e-01	8.209080e-03	1.642826e-01	-3.908705e-01	-8.469449e-01	1.564536e+00	-6.467710e-02	1.629213e+00
165           	5.819634e-01	-1.001748e-01	6.821382e-01	3.407349e-01	3.340339e-01	6.701007e-03	1.636665e-01	-3.911565e-01	-8.472002e-01	1.564652e+00	-6.487438e-02	1.629526e+00
166           	5.855280e-01	-9.848463e-02	6.840126e-01	3.372650e-01	3.319522e-01	5.312810e-03	1.633197e-01	-3.912486e-01	-8.472993e-01	1.564340e+00	-6.512928e-02	1.629469e+00
167           	5.895840e-01	-9.639516e-02	6.859791e-01	3.342476e-01	3.302132e-01	4.034440e-03	1.630894e-01	-3.911871e-01	-8.472065e-01	1.563559e+00	-6.542707e-02	1.628986e+00