# Solver information
# Time        	U_solver      	Ux_initial    	Ux_final      	Ux_iters      	Uy_initial    	Uy_final      	Uy_iters      	Uz_initial    	Uz_final      	Uz_iters      	U_converged   	k_solver      	k_initial     	k_final       	k_iters       	k_converged   	omega_solver  	omega_initial 	omega_final   	omega_iters   	omega_converged	p_solver      	p_initial     	p_final       	p_iters       	p_converged   
1             	DILUPBiCGStab	7.405790e-02	2.699190e-04	2	1.063820e-01	3.066790e-04	2	2.685180e-01	7.757320e-04	2	false	DILUPBiCGStab	1.000000e+00	3.438050e-03	2	true	DILUPBiCGStab	4.928170e-03	1.365580e-05	2	true	GAMGPCG	2.393940e-01	5.927260e-04	4	true
2             	DILUPBiCGStab	5.497330e-02	2.401140e-04	2	4.926230e-02	2.549440e-04	2	1.610960e-01	5.463460e-04	2	false	DILUPBiCGStab	1.239090e-01	4.449380e-04	2	true	DILUPBiCGStab	1.806910e-03	8.649740e-06	2	true	GAMGPCG	2.760410e-01	2.492480e-03	3	true
3             	DILUPBiCGStab	4.377540e-02	1.195090e-04	3	2.671610e-02	3.598740e-05	3	1.048030e-01	3.885710e-04	2	false	DILUPBiCGStab	5.246700e-02	1.807250e-04	2	true	DILUPBiCGStab	2.083880e-03	7.968220e-06	2	true	GAMGPCG	2.684170e-01	7.454210e-04	4	true
4             	DILUPBiCGStab	3.870280e-02	1.594610e-04	2	1.919220e-02	9.056540e-05	2	7.364590e-02	3.723390e-04	2	false	DILUPBiCGStab	3.192470e-02	9.731930e-05	2	true	DILUPBiCGStab	2.263420e-03	7.297260e-06	2	true	GAMGPCG	1.982390e-01	1.502460e-03	3	true
5             	DILUPBiCGStab	3.631790e-02	1.743080e-04	2	1.937920e-02	3.388860e-05	3	5.993330e-02	2.685750e-04	2	false	DILUPBiCGStab	2.242070e-02	7.823060e-05	2	true	DILUPBiCGStab	2.350050e-03	6.663700e-06	2	true	GAMGPCG	1.653460e-01	1.516880e-03	3	true
6             	DILUPBiCGStab	3.177830e-02	1.589250e-04	3	1.797010e-02	1.075090e-04	3	5.147500e-02	2.417910e-04	2	false	DILUPBiCGStab	1.712970e-02	4.813460e-05	2	true	DILUPBiCGStab	2.454550e-03	6.226120e-06	2	true	GAMGPCG	1.612520e-01	9.429730e-04	3	true
7             	DILUPBiCGStab	2.630250e-02	1.314060e-04	2	1.490510e-02	7.121180e-05	2	4.348110e-02	2.226400e-04	2	false	DILUPBiCGStab	1.369750e-02	1.213030e-04	2	true	DILUPBiCGStab	2.502040e-03	5.956690e-06	2	true	GAMGPCG	1.682070e-01	5.293480e-04	4	true
8             	DILUPBiCGStab	2.186810e-02	9.698510e-05	2	1.182090e-02	7.217720e-05	2	3.613250e-02	1.707760e-04	2	false	DILUPBiCGStab	1.122260e-02	9.247460e-05	2	true	DILUPBiCGStab	2.434530e-03	2.426610e-05	2	true	GAMGPCG	1.772060e-01	1.228640e-03	3	true
9             	DILUPBiCGStab	2.040830e-02	1.004310e-04	2	1.030860e-02	2.647550e-05	3	3.006730e-02	1.319710e-04	2	false	DILUPBiCGStab	9.407790e-03	7.508420e-05	2	true	DILUPBiCGStab	2.293270e-03	2.195840e-05	2	true	GAMGPCG	1.853650e-01	5.661640e-04	4	true
10            	DILUPBiCGStab	2.056560e-02	9.576630e-05	2	1.075140e-02	4.986710e-05	2	2.662070e-02	1.301860e-04	2	false	DILUPBiCGStab	7.991550e-03	6.421020e-05	2	true	DILUPBiCGStab	2.137070e-03	1.979560e-05	2	true	GAMGPCG	1.929280e-01	9.301260e-04	3	true
11            	DILUPBiCGStab	2.027420e-02	9.450900e-05	2	1.120030e-02	5.290870e-05	2	2.421010e-02	1.058790e-04	2	false	DILUPBiCGStab	6.988960e-03	5.842710e-05	2	true	DILUPBiCGStab	1.972390e-03	1.776320e-05	2	true	GAMGPCG	1.971230e-01	1.430130e-03	3	true
12            	DILUPBiCGStab	1.908810e-02	8.750810e-05	2	1.088360e-02	7.434400e-05	2	2.221430e-02	9.628730e-05	2	false	DILUPBiCGStab	6.354290e-03	5.596720e-05	2	true	DILUPBiCGStab	1.839550e-03	1.627550e-05	2	true	GAMGPCG	1.936920e-01	8.488960e-04	3	true
13            	DILUPBiCGStab	1.749260e-02	8.270700e-05	2	1.007100e-02	7.764170e-05	2	2.056060e-02	8.899400e-05	2	false	DILUPBiCGStab	5.967660e-03	5.111490e-05	2	true	DILUPBiCGStab	1.717390e-03	1.513550e-05	2	true	GAMGPCG	1.832990e-01	1.683860e-03	3	true
14            	DILUPBiCGStab	1.604910e-02	9.309820e-05	2	9.340440e-03	5.731700e-05	2	1.912730e-02	1.058460e-04	2	false	DILUPBiCGStab	5.797410e-03	1.261140e-05	2	true	DILUPBiCGStab	1.616860e-03	1.468840e-05	2	true	GAMGPCG	1.712620e-01	7.478800e-04	3	true
15            	DILUPBiCGStab	1.506750e-02	1.273930e-04	2	8.973250e-03	2.253970e-05	3	1.789590e-02	1.575970e-04	3	false	DILUPBiCGStab	5.770610e-03	2.649090e-06	3	true	DILUPBiCGStab	1.552660e-03	1.433090e-05	2	true	GAMGPCG	1.611910e-01	1.276440e-03	3	true
16            	DILUPBiCGStab	1.423930e-02	1.423330e-04	2	8.795690e-03	8.744100e-05	2	1.679830e-02	6.808380e-05	2	false	DILUPBiCGStab	5.795360e-03	2.519410e-06	3	true	DILUPBiCGStab	1.491030e-03	1.384790e-05	2	true	GAMGPCG	1.543950e-01	5.366350e-04	3	true
17            	DILUPBiCGStab	1.354150e-02	2.140830e-05	3	8.603780e-03	6.130710e-05	2	1.576020e-02	6.373710e-05	2	false	DILUPBiCGStab	5.813800e-03	2.470980e-06	3	true	DILUPBiCGStab	1.442370e-03	1.321050e-05	2	true	GAMGPCG	1.507710e-01	1.091820e-03	3	true
18            	DILUPBiCGStab	1.287980e-02	1.902440e-05	3	8.333800e-03	5.513370e-05	2	1.475240e-02	5.705640e-05	2	false	DILUPBiCGStab	5.808770e-03	3.307020e-05	2	true	DILUPBiCGStab	1.401510e-03	1.280880e-05	2	true	GAMGPCG	1.494610e-01	6.075070e-04	3	true
19            	DILUPBiCGStab	1.230620e-02	1.832900e-05	3	8.058360e-03	5.789460e-05	2	1.391740e-02	5.310350e-05	2	false	DILUPBiCGStab	5.799210e-03	2.565200e-06	3	true	DILUPBiCGStab	1.361280e-03	1.225660e-05	2	true	GAMGPCG	1.493180e-01	1.164200e-03	3	true
20            	DILUPBiCGStab	1.180390e-02	1.719550e-05	3	7.832120e-03	7.012690e-05	2	1.324500e-02	5.182400e-05	2	false	DILUPBiCGStab	5.750240e-03	2.729970e-05	2	true	DILUPBiCGStab	1.322430e-03	1.201600e-05	2	true	GAMGPCG	1.489530e-01	5.722880e-04	3	true
21            	DILUPBiCGStab	1.129360e-02	1.561150e-05	3	7.650970e-03	1.461130e-05	3	1.265500e-02	5.406430e-05	2	false	DILUPBiCGStab	5.682830e-03	2.271410e-05	2	true	DILUPBiCGStab	1.290380e-03	1.164010e-05	2	true	GAMGPCG	1.476890e-01	9.606480e-04	3	true
22            	DILUPBiCGStab	1.076550e-02	1.409950e-05	3	7.490530e-03	1.457060e-05	3	1.209930e-02	4.886300e-05	2	false	DILUPBiCGStab	5.610150e-03	2.227860e-06	3	true	DILUPBiCGStab	1.259040e-03	1.126400e-05	2	true	GAMGPCG	1.454870e-01	4.648800e-04	3	true
23            	DILUPBiCGStab	1.023870e-02	1.286910e-05	3	7.334120e-03	5.009830e-05	2	1.153830e-02	6.328640e-05	2	false	DILUPBiCGStab	5.541270e-03	2.094010e-05	2	true	DILUPBiCGStab	1.225490e-03	1.094530e-05	2	true	GAMGPCG	1.425530e-01	9.599530e-04	3	true
24            	DILUPBiCGStab	9.763120e-03	1.207480e-05	3	7.198280e-03	3.249910e-05	2	1.099340e-02	5.481750e-05	2	false	DILUPBiCGStab	5.462400e-03	3.640110e-05	2	true	DILUPBiCGStab	1.196700e-03	1.069420e-05	2	true	GAMGPCG	1.392050e-01	4.865330e-04	3	true
25            	DILUPBiCGStab	9.339400e-03	1.150010e-05	3	7.106600e-03	3.071810e-05	2	1.052660e-02	5.820090e-05	2	false	DILUPBiCGStab	5.387410e-03	1.466070e-05	2	true	DILUPBiCGStab	1.169430e-03	1.021230e-05	2	true	GAMGPCG	1.356530e-01	8.826970e-04	3	true
26            	DILUPBiCGStab	8.919450e-03	1.120840e-05	3	7.052480e-03	2.982210e-05	2	1.012060e-02	5.523240e-05	2	false	DILUPBiCGStab	5.318560e-03	1.510210e-05	2	true	DILUPBiCGStab	1.144140e-03	1.012610e-05	2	true	GAMGPCG	1.323020e-01	4.456230e-04	3	true
27            	DILUPBiCGStab	8.535400e-03	1.075080e-05	3	7.008140e-03	2.900550e-05	2	9.741240e-03	5.183010e-05	2	false	DILUPBiCGStab	5.235050e-03	2.298580e-05	2	true	DILUPBiCGStab	1.120170e-03	9.968320e-06	2	true	GAMGPCG	1.294020e-01	7.577650e-04	3	true
28            	DILUPBiCGStab	8.171210e-03	1.027680e-05	3	6.949290e-03	2.807190e-05	2	9.385840e-03	4.416310e-05	2	false	DILUPBiCGStab	5.142890e-03	1.058100e-05	2	true	DILUPBiCGStab	1.100070e-03	9.695390e-06	2	true	GAMGPCG	1.269350e-01	3.782270e-04	3	true
29            	DILUPBiCGStab	7.823900e-03	9.680540e-06	3	6.860910e-03	2.688880e-05	2	9.040990e-03	3.711200e-05	2	false	DILUPBiCGStab	5.073830e-03	1.268840e-05	2	true	DILUPBiCGStab	1.084920e-03	9.550670e-06	2	true	GAMGPCG	1.246980e-01	7.594030e-04	3	true
30            	DILUPBiCGStab	7.515720e-03	9.164310e-06	3	6.755910e-03	2.690550e-05	2	8.713640e-03	3.270260e-05	2	false	DILUPBiCGStab	5.012880e-03	1.074490e-05	2	true	DILUPBiCGStab	1.069580e-03	9.316520e-06	2	true	GAMGPCG	1.226410e-01	3.973070e-04	3	true
31            	DILUPBiCGStab	7.250620e-03	8.878770e-06	3	6.656460e-03	3.094550e-05	2	8.432940e-03	3.099540e-05	2	false	DILUPBiCGStab	4.963520e-03	9.408090e-06	2	true	DILUPBiCGStab	1.057710e-03	9.171280e-06	2	true	GAMGPCG	1.205170e-01	7.798350e-04	3	true
32            	DILUPBiCGStab	7.023200e-03	8.724510e-06	3	6.572560e-03	4.318250e-05	2	8.174470e-03	3.057440e-05	2	false	DILUPBiCGStab	4.941610e-03	8.910510e-06	2	true	DILUPBiCGStab	1.050520e-03	9.153970e-06	2	true	GAMGPCG	1.182770e-01	4.372920e-04	3	true
33            	DILUPBiCGStab	6.812610e-03	8.511640e-06	3	6.504360e-03	6.217370e-05	2	7.922460e-03	3.040120e-05	2	false	DILUPBiCGStab	4.934110e-03	4.724430e-05	2	true	DILUPBiCGStab	1.044840e-03	9.078520e-06	2	true	GAMGPCG	1.160010e-01	7.861610e-04	3	true
34            	DILUPBiCGStab	6.622710e-03	8.201850e-06	3	6.462940e-03	9.293100e-06	3	7.674790e-03	2.953310e-05	2	false	DILUPBiCGStab	4.924410e-03	8.932080e-06	2	true	DILUPBiCGStab	1.039170e-03	9.072670e-06	2	true	GAMGPCG	1.136980e-01	4.627360e-04	3	true
35            	DILUPBiCGStab	6.437710e-03	7.884780e-06	3	6.440230e-03	9.876920e-06	3	7.437980e-03	2.767790e-05	2	false	DILUPBiCGStab	4.888700e-03	4.243780e-05	2	true	DILUPBiCGStab	1.032580e-03	8.818620e-06	2	true	GAMGPCG	1.112900e-01	7.394040e-04	3	true
36            	DILUPBiCGStab	6.250140e-03	7.483880e-06	3	6.425240e-03	4.746480e-05	2	7.235500e-03	2.710510e-05	2	false	DILUPBiCGStab	4.862920e-03	4.590860e-05	2	true	DILUPBiCGStab	1.024850e-03	8.669120e-06	2	true	GAMGPCG	1.087500e-01	4.283250e-04	3	true
37            	DILUPBiCGStab	6.067690e-03	6.997310e-06	3	6.407200e-03	3.279440e-05	2	7.072730e-03	2.851590e-05	2	false	DILUPBiCGStab	4.836680e-03	9.852720e-06	2	true	DILUPBiCGStab	1.015840e-03	8.575700e-06	2	true	GAMGPCG	1.061750e-01	6.505700e-04	3	true
38            	DILUPBiCGStab	5.885340e-03	6.556060e-06	3	6.382850e-03	2.616900e-05	2	6.930290e-03	2.760510e-05	2	false	DILUPBiCGStab	4.782710e-03	4.584400e-05	2	true	DILUPBiCGStab	1.007010e-03	8.427490e-06	2	true	GAMGPCG	1.036230e-01	3.703440e-04	3	true
39            	DILUPBiCGStab	5.698020e-03	6.552720e-06	3	6.350400e-03	2.452890e-05	2	6.800660e-03	2.585160e-05	2	false	DILUPBiCGStab	4.766120e-03	8.906420e-06	2	true	DILUPBiCGStab	9.995720e-04	8.352570e-06	2	true	GAMGPCG	1.011890e-01	5.921790e-04	3	true
40            	DILUPBiCGStab	5.514760e-03	6.930020e-06	3	6.310980e-03	2.362080e-05	2	6.671120e-03	2.435500e-05	2	false	DILUPBiCGStab	4.723630e-03	8.347910e-06	2	true	DILUPBiCGStab	9.897950e-04	8.314320e-06	2	true	GAMGPCG	9.897780e-02	3.389660e-04	3	true
41            	DILUPBiCGStab	5.343450e-03	6.881790e-06	3	6.267640e-03	2.293430e-05	2	6.533210e-03	2.332330e-05	2	false	DILUPBiCGStab	4.685970e-03	9.521570e-06	2	true	DILUPBiCGStab	9.794540e-04	8.129790e-06	2	true	GAMGPCG	9.689200e-02	5.802440e-04	3	true
42            	DILUPBiCGStab	5.194060e-03	6.589510e-06	3	6.225580e-03	2.225800e-05	2	6.400040e-03	2.319940e-05	2	false	DILUPBiCGStab	4.639290e-03	8.910830e-06	2	true	DILUPBiCGStab	9.671290e-04	7.958100e-06	2	true	GAMGPCG	9.487010e-02	3.250250e-04	3	true
43            	DILUPBiCGStab	5.059470e-03	6.256430e-06	3	6.189460e-03	2.129620e-05	2	6.271360e-03	2.420640e-05	2	false	DILUPBiCGStab	4.605510e-03	1.205770e-05	2	true	DILUPBiCGStab	9.557620e-04	7.805120e-06	2	true	GAMGPCG	9.275860e-02	5.906530e-04	3	true
44            	DILUPBiCGStab	4.939820e-03	5.972060e-06	3	6.160860e-03	2.049160e-05	2	6.148870e-03	2.519470e-05	2	false	DILUPBiCGStab	4.567040e-03	1.165460e-05	2	true	DILUPBiCGStab	9.422710e-04	7.686500e-06	2	true	GAMGPCG	9.061250e-02	3.124550e-04	3	true
45            	DILUPBiCGStab	4.822480e-03	5.805640e-06	3	6.140660e-03	2.006850e-05	2	6.031660e-03	2.406430e-05	2	false	DILUPBiCGStab	4.533890e-03	1.613980e-06	3	true	DILUPBiCGStab	9.324360e-04	7.608070e-06	2	true	GAMGPCG	8.857700e-02	5.525440e-04	3	true
46            	DILUPBiCGStab	4.699850e-03	5.693430e-06	3	6.123500e-03	1.997110e-05	2	5.921180e-03	2.153020e-05	2	false	DILUPBiCGStab	4.497020e-03	1.551600e-06	3	true	DILUPBiCGStab	9.204310e-04	7.662880e-06	2	true	GAMGPCG	8.659790e-02	2.965130e-04	3	true
47            	DILUPBiCGStab	4.576880e-03	5.651560e-06	3	6.110430e-03	1.985400e-05	2	5.823930e-03	1.923560e-05	2	false	DILUPBiCGStab	4.461780e-03	1.422420e-06	3	true	DILUPBiCGStab	9.099460e-04	7.494040e-06	2	true	GAMGPCG	8.467230e-02	5.215430e-04	3	true
48            	DILUPBiCGStab	4.456160e-03	4.034500e-05	2	6.100750e-03	1.970900e-05	2	5.738700e-03	1.800060e-05	2	false	DILUPBiCGStab	4.433130e-03	1.935570e-05	2	true	DILUPBiCGStab	9.001670e-04	7.302570e-06	2	true	GAMGPCG	8.268220e-02	2.829040e-04	3	true
49            	DILUPBiCGStab	4.339990e-03	3.261200e-05	2	6.097010e-03	1.970050e-05	2	5.660810e-03	1.729520e-05	2	false	DILUPBiCGStab	4.391550e-03	1.170760e-05	2	true	DILUPBiCGStab	8.900650e-04	7.261820e-06	2	true	GAMGPCG	8.077220e-02	5.166670e-04	3	true
50            	DILUPBiCGStab	4.227820e-03	2.648000e-05	2	6.100240e-03	1.976300e-05	2	5.587940e-03	1.688270e-05	2	false	DILUPBiCGStab	4.355760e-03	4.151670e-05	2	true	DILUPBiCGStab	8.814490e-04	7.071890e-06	2	true	GAMGPCG	7.894510e-02	2.737380e-04	3	true
51            	DILUPBiCGStab	4.122520e-03	2.239040e-05	2	6.110860e-03	1.944190e-05	2	5.524060e-03	1.652390e-05	2	false	DILUPBiCGStab	4.331490e-03	7.122470e-06	2	true	DILUPBiCGStab	8.748550e-04	6.904790e-06	2	true	GAMGPCG	7.719590e-02	5.114930e-04	3	true
52            	DILUPBiCGStab	4.025420e-03	1.882740e-05	2	6.128000e-03	2.246090e-05	2	5.467590e-03	1.628860e-05	2	false	DILUPBiCGStab	4.302590e-03	4.081530e-05	2	true	DILUPBiCGStab	8.682750e-04	6.919600e-06	2	true	GAMGPCG	7.553950e-02	2.654790e-04	3	true
53            	DILUPBiCGStab	3.936670e-03	1.631140e-05	2	6.150560e-03	5.530030e-05	2	5.416630e-03	1.622730e-05	2	false	DILUPBiCGStab	4.277050e-03	8.772380e-06	2	true	DILUPBiCGStab	8.637600e-04	6.899630e-06	2	true	GAMGPCG	7.393550e-02	4.961820e-04	3	true
54            	DILUPBiCGStab	3.855700e-03	1.461080e-05	2	6.175170e-03	5.570890e-06	3	5.368880e-03	1.633470e-05	2	false	DILUPBiCGStab	4.263750e-03	3.432520e-05	2	true	DILUPBiCGStab	8.584030e-04	6.863580e-06	2	true	GAMGPCG	7.242750e-02	2.526030e-04	3	true
55            	DILUPBiCGStab	3.781950e-03	1.348330e-05	2	6.203810e-03	4.774100e-06	3	5.322410e-03	1.675930e-05	2	false	DILUPBiCGStab	4.251410e-03	1.122000e-05	2	true	DILUPBiCGStab	8.545270e-04	6.869430e-06	2	true	GAMGPCG	7.099130e-02	4.653810e-04	3	true
56            	DILUPBiCGStab	3.714710e-03	1.344240e-05	2	6.236430e-03	4.674240e-06	3	5.284300e-03	1.812880e-05	2	false	DILUPBiCGStab	4.243590e-03	3.906590e-05	2	true	DILUPBiCGStab	8.521570e-04	6.803780e-06	2	true	GAMGPCG	6.969810e-02	2.397580e-04	3	true
57            	DILUPBiCGStab	3.655110e-03	1.511010e-05	2	6.273270e-03	4.700570e-06	3	5.257860e-03	2.155510e-05	2	false	DILUPBiCGStab	4.247390e-03	3.137710e-05	2	true	DILUPBiCGStab	8.537200e-04	6.799560e-06	2	true	GAMGPCG	6.850000e-02	4.424090e-04	3	true
58            	DILUPBiCGStab	3.603140e-03	1.639500e-05	2	6.312640e-03	4.906950e-06	3	5.239330e-03	2.670240e-05	2	false	DILUPBiCGStab	4.245130e-03	3.039650e-05	2	true	DILUPBiCGStab	8.522070e-04	6.752680e-06	2	true	GAMGPCG	6.738900e-02	2.285130e-04	3	true
59            	DILUPBiCGStab	3.559440e-03	2.171210e-05	2	6.354550e-03	4.948840e-06	3	5.226870e-03	3.153760e-05	2	false	DILUPBiCGStab	4.242440e-03	3.018440e-05	2	true	DILUPBiCGStab	8.526880e-04	6.772080e-06	2	true	GAMGPCG	6.635160e-02	4.314330e-04	3	true
60            	DILUPBiCGStab	3.521540e-03	3.265580e-06	3	6.398150e-03	5.835340e-05	2	5.221650e-03	3.758180e-05	2	false	DILUPBiCGStab	4.243610e-03	3.044930e-05	2	true	DILUPBiCGStab	8.579990e-04	6.749110e-06	2	true	GAMGPCG	6.545080e-02	2.243700e-04	3	true
61            	DILUPBiCGStab	3.486880e-03	3.293400e-06	3	6.447050e-03	3.775620e-05	2	5.226100e-03	3.570240e-05	2	false	DILUPBiCGStab	4.254770e-03	3.108360e-05	2	true	DILUPBiCGStab	8.620010e-04	6.750580e-06	2	true	GAMGPCG	6.461610e-02	4.248900e-04	3	true
62            	DILUPBiCGStab	3.455610e-03	3.263070e-06	3	6.494970e-03	3.003810e-05	2	5.239160e-03	3.009940e-05	2	false	DILUPBiCGStab	4.255420e-03	3.094880e-05	2	true	DILUPBiCGStab	8.641500e-04	6.762910e-06	2	true	GAMGPCG	6.387450e-02	2.285250e-04	3	true
63            	DILUPBiCGStab	3.426840e-03	3.144280e-06	3	6.539590e-03	2.477610e-05	2	5.259500e-03	2.585240e-05	2	false	DILUPBiCGStab	4.253850e-03	3.829400e-05	2	true	DILUPBiCGStab	8.670140e-04	6.744260e-06	2	true	GAMGPCG	6.321380e-02	4.276650e-04	3	true
64            	DILUPBiCGStab	3.401920e-03	3.056220e-06	3	6.577910e-03	2.133910e-05	2	5.283100e-03	2.592550e-05	2	false	DILUPBiCGStab	4.258930e-03	1.727180e-05	2	true	DILUPBiCGStab	8.715900e-04	6.775890e-06	2	true	GAMGPCG	6.254710e-02	2.349650e-04	3	true
65            	DILUPBiCGStab	3.379640e-03	2.856700e-06	3	6.612540e-03	1.984500e-05	2	5.306100e-03	4.028780e-05	2	false	DILUPBiCGStab	4.264250e-03	1.104200e-05	2	true	DILUPBiCGStab	8.755380e-04	6.785820e-06	2	true	GAMGPCG	6.188000e-02	4.434710e-04	3	true
66            	DILUPBiCGStab	3.359770e-03	2.999200e-05	2	6.641760e-03	1.889180e-05	2	5.331540e-03	4.414850e-06	3	false	DILUPBiCGStab	4.259720e-03	2.840370e-05	2	true	DILUPBiCGStab	8.788240e-04	6.837490e-06	2	true	GAMGPCG	6.117200e-02	2.391530e-04	3	true
67            	DILUPBiCGStab	3.341890e-03	2.644260e-05	2	6.669720e-03	1.839610e-05	2	5.362180e-03	4.296020e-06	3	false	DILUPBiCGStab	4.249090e-03	1.198310e-06	3	true	DILUPBiCGStab	8.787420e-04	6.951700e-06	2	true	GAMGPCG	6.048570e-02	4.492340e-04	3	true
68            	DILUPBiCGStab	3.323110e-03	2.401170e-05	2	6.695500e-03	1.818900e-05	2	5.392540e-03	3.839950e-06	3	false	DILUPBiCGStab	4.241500e-03	1.176700e-06	3	true	DILUPBiCGStab	8.801670e-04	6.994390e-06	2	true	GAMGPCG	5.986910e-02	2.386950e-04	3	true
69            	DILUPBiCGStab	3.304490e-03	2.214350e-05	2	6.717700e-03	1.803680e-05	2	5.424000e-03	3.518590e-06	3	false	DILUPBiCGStab	4.225610e-03	2.489560e-05	2	true	DILUPBiCGStab	8.818300e-04	6.949690e-06	2	true	GAMGPCG	5.935210e-02	4.435320e-04	3	true
70            	DILUPBiCGStab	3.285790e-03	2.083070e-05	2	6.739950e-03	1.789450e-05	2	5.455820e-03	3.463430e-06	3	false	DILUPBiCGStab	4.210190e-03	2.086280e-05	2	true	DILUPBiCGStab	8.817240e-04	7.084090e-06	2	true	GAMGPCG	5.886750e-02	2.393080e-04	3	true
71            	DILUPBiCGStab	3.265490e-03	1.943700e-05	2	6.760350e-03	1.770500e-05	2	5.485060e-03	4.741820e-05	2	false	DILUPBiCGStab	4.195730e-03	2.318980e-05	2	true	DILUPBiCGStab	8.816380e-04	7.092180e-06	2	true	GAMGPCG	5.841860e-02	4.406710e-04	3	true
72            	DILUPBiCGStab	3.243640e-03	1.753160e-05	2	6.772500e-03	1.749760e-05	2	5.512280e-03	3.739910e-05	2	false	DILUPBiCGStab	4.178380e-03	2.736300e-05	2	true	DILUPBiCGStab	8.804360e-04	7.107480e-06	2	true	GAMGPCG	5.792590e-02	2.398630e-04	3	true
73            	DILUPBiCGStab	3.220100e-03	1.527830e-05	2	6.778410e-03	1.728010e-05	2	5.535440e-03	3.381460e-05	2	false	DILUPBiCGStab	4.160010e-03	2.917250e-05	2	true	DILUPBiCGStab	8.776790e-04	7.036790e-06	2	true	GAMGPCG	5.742800e-02	4.372300e-04	3	true
74            	DILUPBiCGStab	3.197680e-03	1.331640e-05	2	6.781290e-03	1.711700e-05	2	5.554820e-03	2.530280e-05	2	false	DILUPBiCGStab	4.142830e-03	2.013340e-05	2	true	DILUPBiCGStab	8.744700e-04	7.149540e-06	2	true	GAMGPCG	5.693890e-02	2.413300e-04	3	true
75            	DILUPBiCGStab	3.176150e-03	1.211650e-05	2	6.781560e-03	1.699620e-05	2	5.569430e-03	1.774970e-05	2	false	DILUPBiCGStab	4.128750e-03	2.476130e-05	2	true	DILUPBiCGStab	8.715740e-04	7.137140e-06	2	true	GAMGPCG	5.641460e-02	4.304090e-04	3	true
76            	DILUPBiCGStab	3.156700e-03	1.126810e-05	2	6.778870e-03	1.687520e-05	2	5.580390e-03	1.561170e-05	2	false	DILUPBiCGStab	4.117890e-03	1.289270e-06	3	true	DILUPBiCGStab	8.689430e-04	7.049260e-06	2	true	GAMGPCG	5.590880e-02	2.384660e-04	3	true
77            	DILUPBiCGStab	3.139690e-03	1.033550e-05	2	6.776300e-03	1.674100e-05	2	5.590260e-03	1.433730e-05	2	false	DILUPBiCGStab	4.110630e-03	1.335280e-06	3	true	DILUPBiCGStab	8.668770e-04	7.024460e-06	2	true	GAMGPCG	5.536160e-02	4.086170e-04	3	true
78            	DILUPBiCGStab	3.124860e-03	9.547160e-06	2	6.774570e-03	1.667700e-05	2	5.600820e-03	1.365990e-05	2	false	DILUPBiCGStab	4.103530e-03	3.127960e-05	2	true	DILUPBiCGStab	8.654530e-04	7.007180e-06	2	true	GAMGPCG	5.487240e-02	2.263160e-04	3	true
79            	DILUPBiCGStab	3.112240e-03	8.990470e-06	2	6.773450e-03	1.662580e-05	2	5.612620e-03	1.355100e-05	2	false	DILUPBiCGStab	4.096500e-03	2.782750e-05	2	true	DILUPBiCGStab	8.644660e-04	6.867620e-06	2	true	GAMGPCG	5.436590e-02	3.845630e-04	3	true
80            	DILUPBiCGStab	3.101430e-03	8.518750e-06	2	6.777820e-03	1.656180e-05	2	5.628200e-03	1.358620e-05	2	false	DILUPBiCGStab	4.093050e-03	3.520810e-05	2	true	DILUPBiCGStab	8.641960e-04	6.764160e-06	2	true	GAMGPCG	5.389670e-02	2.093350e-04	3	true
81            	DILUPBiCGStab	3.091460e-03	8.188600e-06	2	6.785110e-03	1.652970e-05	2	5.645000e-03	1.364700e-05	2	false	DILUPBiCGStab	4.090020e-03	3.921380e-05	2	true	DILUPBiCGStab	8.630050e-04	6.732670e-06	2	true	GAMGPCG	5.351690e-02	3.668960e-04	3	true
82            	DILUPBiCGStab	3.082590e-03	7.929210e-06	2	6.794070e-03	1.648410e-05	2	5.663900e-03	1.369630e-05	2	false	DILUPBiCGStab	4.085680e-03	1.336210e-06	3	true	DILUPBiCGStab	8.633640e-04	6.593290e-06	2	true	GAMGPCG	5.316070e-02	1.945060e-04	3	true
83            	DILUPBiCGStab	3.075150e-03	7.722900e-06	2	6.806430e-03	1.647200e-05	2	5.686660e-03	1.379970e-05	2	false	DILUPBiCGStab	4.082980e-03	1.391490e-06	3	true	DILUPBiCGStab	8.632680e-04	6.565140e-06	2	true	GAMGPCG	5.281180e-02	3.528160e-04	3	true
84            	DILUPBiCGStab	3.067750e-03	7.576300e-06	2	6.821600e-03	1.649140e-05	2	5.711900e-03	1.383260e-05	2	false	DILUPBiCGStab	4.080670e-03	1.454330e-06	3	true	DILUPBiCGStab	8.634530e-04	6.556280e-06	2	true	GAMGPCG	5.252270e-02	1.882530e-04	3	true
85            	DILUPBiCGStab	3.060390e-03	7.476590e-06	2	6.837170e-03	1.656540e-05	2	5.739810e-03	1.383690e-05	2	false	DILUPBiCGStab	4.082810e-03	1.883460e-05	2	true	DILUPBiCGStab	8.633120e-04	6.522130e-06	2	true	GAMGPCG	5.230160e-02	3.550590e-04	3	true
86            	DILUPBiCGStab	3.052850e-03	7.445170e-06	2	6.854150e-03	1.662830e-05	2	5.770350e-03	5.769630e-05	2	false	DILUPBiCGStab	4.083290e-03	1.002110e-05	2	true	DILUPBiCGStab	8.635300e-04	6.496580e-06	2	true	GAMGPCG	5.207870e-02	1.916920e-04	3	true
87            	DILUPBiCGStab	3.046440e-03	7.477140e-06	2	6.870240e-03	1.665690e-05	2	5.806480e-03	5.757900e-05	2	false	DILUPBiCGStab	4.088330e-03	1.234240e-05	2	true	DILUPBiCGStab	8.639030e-04	6.472210e-06	2	true	GAMGPCG	5.187560e-02	3.585010e-04	3	true
88            	DILUPBiCGStab	3.040430e-03	7.490940e-06	2	6.888730e-03	1.664670e-05	2	5.843560e-03	5.757290e-05	2	false	DILUPBiCGStab	4.095220e-03	1.735770e-05	2	true	DILUPBiCGStab	8.636220e-04	6.448480e-06	2	true	GAMGPCG	5.166000e-02	1.966390e-04	3	true
89            	DILUPBiCGStab	3.035170e-03	7.465430e-06	2	6.909310e-03	6.876510e-05	2	5.883810e-03	5.771930e-05	2	false	DILUPBiCGStab	4.102650e-03	3.425430e-05	2	true	DILUPBiCGStab	8.637340e-04	6.425170e-06	2	true	GAMGPCG	5.140990e-02	3.559980e-04	3	true
90            	DILUPBiCGStab	3.030620e-03	7.454490e-06	2	6.934900e-03	6.863030e-05	2	5.925870e-03	5.795620e-05	2	false	DILUPBiCGStab	4.106600e-03	1.094450e-06	3	true	DILUPBiCGStab	8.648290e-04	6.496980e-06	2	true	GAMGPCG	5.117860e-02	1.964640e-04	3	true
91            	DILUPBiCGStab	3.026680e-03	7.414340e-06	2	6.961180e-03	6.859140e-05	2	5.969520e-03	5.809810e-05	2	false	DILUPBiCGStab	4.115060e-03	1.104070e-06	3	true	DILUPBiCGStab	8.664760e-04	7.031670e-06	2	true	GAMGPCG	5.098960e-02	3.424900e-04	3	true
92            	DILUPBiCGStab	3.023740e-03	7.381640e-06	2	6.987630e-03	6.872340e-05	2	6.014260e-03	5.845140e-05	2	false	DILUPBiCGStab	4.121740e-03	3.154240e-05	2	true	DILUPBiCGStab	8.673240e-04	6.843870e-06	2	true	GAMGPCG	5.078250e-02	1.898220e-04	3	true
93            	DILUPBiCGStab	3.021920e-03	7.357390e-06	2	7.013930e-03	6.892570e-05	2	6.060130e-03	5.895000e-05	2	false	DILUPBiCGStab	4.132410e-03	1.614140e-05	2	true	DILUPBiCGStab	8.679890e-04	6.527980e-06	2	true	GAMGPCG	5.056290e-02	3.240850e-04	3	true
94            	DILUPBiCGStab	3.020520e-03	7.290920e-06	2	7.039810e-03	6.895840e-05	2	6.106810e-03	5.948540e-05	2	false	DILUPBiCGStab	4.139800e-03	1.093650e-05	2	true	DILUPBiCGStab	8.695410e-04	6.417940e-06	2	true	GAMGPCG	5.039620e-02	1.791200e-04	3	true
95            	DILUPBiCGStab	3.018170e-03	7.221520e-06	2	7.065410e-03	6.895720e-05	2	6.156380e-03	5.990990e-05	2	false	DILUPBiCGStab	4.148100e-03	8.896930e-06	2	true	DILUPBiCGStab	8.722570e-04	6.392890e-06	2	true	GAMGPCG	5.022260e-02	3.102650e-04	3	true
96            	DILUPBiCGStab	3.017240e-03	7.181420e-06	2	7.094350e-03	6.915250e-05	2	6.205790e-03	6.024540e-05	2	false	DILUPBiCGStab	4.153880e-03	7.698440e-06	2	true	DILUPBiCGStab	8.749360e-04	6.424490e-06	2	true	GAMGPCG	5.005560e-02	1.687910e-04	3	true
97            	DILUPBiCGStab	3.015870e-03	7.205020e-06	2	7.126160e-03	6.939050e-05	2	6.257430e-03	6.055110e-05	2	false	DILUPBiCGStab	4.154060e-03	6.771030e-06	2	true	DILUPBiCGStab	8.770180e-04	6.463040e-06	2	true	GAMGPCG	4.992870e-02	3.010270e-04	3	true
98            	DILUPBiCGStab	3.014130e-03	7.207680e-06	2	7.158600e-03	6.977160e-05	2	6.312660e-03	6.083920e-05	2	false	DILUPBiCGStab	4.152430e-03	6.185060e-06	2	true	DILUPBiCGStab	8.785180e-04	6.463300e-06	2	true	GAMGPCG	4.984430e-02	1.617710e-04	3	true
99            	DILUPBiCGStab	3.012420e-03	3.009460e-05	2	7.192850e-03	7.039280e-05	2	6.369290e-03	6.106300e-05	2	false	DILUPBiCGStab	4.147270e-03	3.932990e-05	2	true	DILUPBiCGStab	8.790820e-04	6.493220e-06	2	true	GAMGPCG	4.980290e-02	2.942520e-04	3	true
100           	DILUPBiCGStab	3.012710e-03	3.005630e-05	2	7.228600e-03	7.088320e-05	2	6.422620e-03	6.127850e-05	2	false	DILUPBiCGStab	4.141530e-03	3.734000e-05	2	true	DILUPBiCGStab	8.804170e-04	6.503270e-06	2	true	GAMGPCG	4.980950e-02	1.577700e-04	3	true
101           	DILUPBiCGStab	3.012870e-03	3.011070e-05	2	7.263190e-03	7.122430e-05	2	6.476240e-03	6.165280e-05	2	false	DILUPBiCGStab	4.140370e-03	3.630050e-05	2	true	DILUPBiCGStab	8.827080e-04	6.528220e-06	2	true	GAMGPCG	4.985490e-02	2.874660e-04	3	true
102           	DILUPBiCGStab	3.013350e-03	3.012230e-05	2	7.301020e-03	7.145010e-05	2	6.533060e-03	6.205620e-05	2	false	DILUPBiCGStab	4.140930e-03	3.497470e-05	2	true	DILUPBiCGStab	8.854740e-04	6.514990e-06	2	true	GAMGPCG	4.990670e-02	1.546710e-04	3	true
103           	DILUPBiCGStab	3.014770e-03	7.053510e-06	2	7.340600e-03	7.160780e-05	2	6.589160e-03	6.243660e-05	2	false	DILUPBiCGStab	4.132800e-03	3.373280e-05	2	true	DILUPBiCGStab	8.879060e-04	6.494970e-06	2	true	GAMGPCG	4.993970e-02	2.860400e-04	3	true
104           	DILUPBiCGStab	3.013780e-03	6.982500e-06	2	7.378050e-03	7.172040e-05	2	6.645080e-03	6.281570e-05	2	false	DILUPBiCGStab	4.129180e-03	3.312560e-05	2	true	DILUPBiCGStab	8.895380e-04	6.526000e-06	2	true	GAMGPCG	5.004080e-02	1.529160e-04	3	true
105           	DILUPBiCGStab	3.011510e-03	6.863670e-06	2	7.413210e-03	7.196720e-05	2	6.701340e-03	6.313760e-05	2	false	DILUPBiCGStab	4.125050e-03	3.177920e-05	2	true	DILUPBiCGStab	8.905270e-04	6.502790e-06	2	true	GAMGPCG	5.019610e-02	2.913640e-04	3	true
106           	DILUPBiCGStab	3.008070e-03	6.795720e-06	2	7.446780e-03	7.236400e-05	2	6.760690e-03	6.353570e-05	2	false	DILUPBiCGStab	4.116520e-03	3.116720e-05	2	true	DILUPBiCGStab	8.914430e-04	6.539010e-06	2	true	GAMGPCG	5.032500e-02	1.539660e-04	3	true
107           	DILUPBiCGStab	3.003720e-03	6.757500e-06	2	7.476670e-03	7.311220e-05	2	6.816980e-03	6.383700e-05	2	false	DILUPBiCGStab	4.105040e-03	3.042660e-05	2	true	DILUPBiCGStab	8.933060e-04	6.575840e-06	2	true	GAMGPCG	5.036900e-02	2.954360e-04	3	true
108           	DILUPBiCGStab	2.998920e-03	6.743480e-06	2	7.503830e-03	7.352260e-05	2	6.867340e-03	6.409690e-05	2	false	DILUPBiCGStab	4.100110e-03	2.973060e-05	2	true	DILUPBiCGStab	8.957470e-04	6.639440e-06	2	true	GAMGPCG	5.037820e-02	1.537030e-04	3	true
109           	DILUPBiCGStab	2.994290e-03	6.733290e-06	2	7.529110e-03	7.397530e-05	2	6.914140e-03	6.432170e-05	2	false	DILUPBiCGStab	4.085150e-03	2.988080e-05	2	true	DILUPBiCGStab	8.966550e-04	6.697700e-06	2	true	GAMGPCG	5.042920e-02	2.926440e-04	3	true
110           	DILUPBiCGStab	2.988870e-03	6.672090e-06	2	7.550710e-03	7.464030e-05	2	6.961590e-03	6.452650e-05	2	false	DILUPBiCGStab	4.073990e-03	3.052430e-05	2	true	DILUPBiCGStab	8.976090e-04	6.762610e-06	2	true	GAMGPCG	5.045040e-02	1.504470e-04	3	true
111           	DILUPBiCGStab	2.983480e-03	6.628000e-06	2	7.573620e-03	7.521240e-05	2	7.009910e-03	6.481580e-05	2	false	DILUPBiCGStab	4.060690e-03	3.237510e-05	2	true	DILUPBiCGStab	8.982880e-04	6.710010e-06	2	true	GAMGPCG	5.048140e-02	2.826990e-04	3	true
112           	DILUPBiCGStab	2.980620e-03	6.591680e-06	2	7.595230e-03	7.564230e-05	2	7.053790e-03	6.518030e-05	2	false	DILUPBiCGStab	4.046880e-03	3.660450e-05	2	true	DILUPBiCGStab	8.989970e-04	6.714760e-06	2	true	GAMGPCG	5.049780e-02	1.472880e-04	3	true
113           	DILUPBiCGStab	2.978840e-03	6.571870e-06	2	7.618490e-03	7.571110e-05	2	7.093510e-03	6.570070e-05	2	false	DILUPBiCGStab	4.035880e-03	3.935760e-05	2	true	DILUPBiCGStab	8.992300e-04	6.768170e-06	2	true	GAMGPCG	5.044280e-02	2.679830e-04	3	true
114           	DILUPBiCGStab	2.977100e-03	6.595000e-06	2	7.643590e-03	7.615340e-05	2	7.134110e-03	6.641850e-05	2	false	DILUPBiCGStab	4.026640e-03	3.939820e-05	2	true	DILUPBiCGStab	8.994240e-04	6.822830e-06	2	true	GAMGPCG	5.041320e-02	4.974860e-04	2	true
115           	DILUPBiCGStab	2.975460e-03	6.611020e-06	2	7.667850e-03	7.651410e-05	2	7.175620e-03	6.699790e-05	2	false	DILUPBiCGStab	4.021030e-03	6.472320e-06	2	true	DILUPBiCGStab	9.006560e-04	6.761380e-06	2	true	GAMGPCG	5.051770e-02	2.576320e-04	3	true
116           	DILUPBiCGStab	2.973760e-03	6.650410e-06	2	7.691750e-03	7.689340e-05	2	7.214910e-03	6.750140e-05	2	false	DILUPBiCGStab	4.011680e-03	6.307790e-06	2	true	DILUPBiCGStab	9.014390e-04	6.752100e-06	2	true	GAMGPCG	5.060050e-02	4.824390e-04	2	true