# Force and moment coefficients
# dragDir     : (1.000000e+00 0.000000e+00 0.000000e+00)
# sideDir     : (0.000000e+00 1.000000e+00 0.000000e+00)
# liftDir     : (0.000000e+00 0.000000e+00 1.000000e+00)
# rollAxis    : (1.000000e+00 0.000000e+00 0.000000e+00)
# pitchAxis   : (0.000000e+00 1.000000e+00 0.000000e+00)
# yawAxis     : (0.000000e+00 0.000000e+00 1.000000e+00)
# magUInf     : 1.750000e+01
# lRef        : 1.854000e+00
# Aref        : 6.450000e-01
# CofR        : (0.000000e+00 0.000000e+00 0.000000e+00)
#
# Time        	Cd            	Cd(f)         	Cd(r)         	Cl            	Cl(f)         	Cl(r)         	CmPitch       	CmRoll        	CmYaw         	Cs            	Cs(f)         	Cs(r)         
1             	1.722740e-01	2.323537e-03	1.699505e-01	-3.448455e-01	-3.571439e-01	1.229834e-02	-1.847211e-01	-8.381346e-02	-1.995822e-02	4.253280e-02	1.308185e-03	4.122461e-02
2             	2.315088e-01	3.733524e-02	1.941735e-01	-2.013087e-01	-2.559965e-01	5.468777e-02	-1.553421e-01	-7.841914e-02	-2.033296e-02	1.916099e-01	7.547198e-02	1.161379e-01
3             	2.901427e-01	7.265757e-02	2.174851e-01	-6.543568e-02	-1.631870e-01	9.775127e-02	-1.304691e-01	-7.241377e-02	-2.162969e-02	3.274712e-01	1.421059e-01	1.853653e-01
4             	3.171672e-01	9.211994e-02	2.250472e-01	3.081493e-02	-1.041425e-01	1.349574e-01	-1.195500e-01	-6.646364e-02	-1.946559e-02	4.146173e-01	1.878430e-01	2.267742e-01
5             	2.999261e-01	8.936959e-02	2.105565e-01	7.880005e-02	-8.520847e-02	1.640085e-01	-1.246085e-01	-6.059344e-02	-1.200703e-02	4.425412e-01	2.092636e-01	2.332776e-01
6             	2.460133e-01	6.826347e-02	1.777499e-01	8.714093e-02	-9.780127e-02	1.849422e-01	-1.413717e-01	-5.474320e-02	-3.018700e-04	4.217442e-01	2.105702e-01	2.111740e-01
7             	1.769997e-01	3.893733e-02	1.380624e-01	7.076866e-02	-1.278741e-01	1.986427e-01	-1.632584e-01	-4.956251e-02	1.254454e-02	3.743906e-01	1.997399e-01	1.746508e-01
8             	1.168837e-01	1.300177e-02	1.038819e-01	4.674257e-02	-1.601520e-01	2.068946e-01	-1.835233e-01	-4.544007e-02	2.308886e-02	3.239736e-01	1.850757e-01	1.388979e-01
9             	8.292096e-02	-1.051150e-03	8.397211e-02	2.833657e-02	-1.825501e-01	2.108867e-01	-1.967184e-01	-4.251163e-02	2.896600e-02	2.873814e-01	1.726567e-01	1.147247e-01
10            	8.122351e-02	-3.093575e-04	8.153287e-02	2.172159e-02	-1.889175e-01	2.106390e-01	-1.997783e-01	-4.092111e-02	2.955662e-02	2.722497e-01	1.656815e-01	1.065682e-01
11            	1.068583e-01	1.307188e-02	9.378647e-02	2.734354e-02	-1.802464e-01	2.075900e-01	-1.939182e-01	-4.035729e-02	2.584739e-02	2.770990e-01	1.643969e-01	1.127021e-01
12            	1.471539e-01	3.320237e-02	1.139515e-01	4.173805e-02	-1.611978e-01	2.029358e-01	-1.820668e-01	-4.037458e-02	1.985059e-02	2.948181e-01	1.672596e-01	1.275585e-01
13            	1.881656e-01	5.397753e-02	1.341881e-01	6.161466e-02	-1.365370e-01	1.981516e-01	-1.673443e-01	-4.010527e-02	1.369089e-02	3.164939e-01	1.719378e-01	1.445561e-01
14            	2.185089e-01	6.947658e-02	1.490323e-01	7.993706e-02	-1.133625e-01	1.932995e-01	-1.533310e-01	-3.977788e-02	9.069612e-03	3.345598e-01	1.763495e-01	1.582103e-01
15            	2.328679e-01	7.781527e-02	1.550526e-01	9.629179e-02	-9.292482e-02	1.892166e-01	-1.410707e-01	-3.861867e-02	6.793303e-03	3.448753e-01	1.792309e-01	1.656443e-01
16            	2.315170e-01	7.896898e-02	1.525480e-01	1.090074e-01	-7.698725e-02	1.859946e-01	-1.314909e-01	-3.678951e-02	6.867806e-03	3.469329e-01	1.803343e-01	1.665987e-01
17            	2.193980e-01	7.509049e-02	1.443075e-01	1.179251e-01	-6.533392e-02	1.832590e-01	-1.242965e-01	-3.460851e-02	8.589747e-03	3.429269e-01	1.800532e-01	1.628737e-01
18            	2.032631e-01	6.915877e-02	1.341043e-01	1.236865e-01	-5.695361e-02	1.806402e-01	-1.187969e-01	-3.247278e-02	1.091870e-02	3.361789e-01	1.790082e-01	1.571708e-01
19            	1.893439e-01	6.411077e-02	1.252331e-01	1.278868e-01	-5.010178e-02	1.779886e-01	-1.140452e-01	-3.056118e-02	1.290477e-02	3.298544e-01	1.778320e-01	1.520224e-01
20            	1.816902e-01	6.193670e-02	1.197535e-01	1.321380e-01	-4.314429e-02	1.752823e-01	-1.092133e-01	-2.890838e-02	1.392452e-02	3.260593e-01	1.769541e-01	1.491051e-01
21            	1.813871e-01	6.329104e-02	1.180961e-01	1.377409e-01	-3.481323e-02	1.725541e-01	-1.036837e-01	-2.740251e-02	1.376663e-02	3.255097e-01	1.765215e-01	1.489882e-01
22            	1.871292e-01	6.766679e-02	1.194624e-01	1.452477e-01	-2.474939e-02	1.699971e-01	-9.737324e-02	-2.589782e-02	1.258461e-02	3.277503e-01	1.764598e-01	1.512906e-01
23            	1.961829e-01	7.382847e-02	1.223544e-01	1.545637e-01	-1.311770e-02	1.676813e-01	-9.039952e-02	-2.426299e-02	1.077447e-02	3.316048e-01	1.765769e-01	1.550279e-01
24            	2.056380e-01	8.036042e-02	1.252776e-01	1.650152e-01	-6.320070e-04	1.656473e-01	-8.313963e-02	-2.245857e-02	8.749055e-03	3.357756e-01	1.766369e-01	1.591387e-01
25            	2.132114e-01	8.601096e-02	1.272005e-01	1.754316e-01	1.163140e-02	1.638002e-01	-7.608442e-02	-2.059476e-02	6.828489e-03	3.392690e-01	1.764630e-01	1.628060e-01
26            	2.178297e-01	9.012599e-02	1.277037e-01	1.848890e-01	2.287721e-02	1.620117e-01	-6.956727e-02	-1.878886e-02	5.175285e-03	3.415457e-01	1.759481e-01	1.655976e-01
27            	2.195209e-01	9.260271e-02	1.269182e-01	1.927666e-01	3.262021e-02	1.601464e-01	-6.376311e-02	-1.715772e-02	3.813325e-03	3.425681e-01	1.750974e-01	1.674707e-01
28            	2.190934e-01	9.365272e-02	1.254406e-01	1.983470e-01	4.047571e-02	1.578712e-01	-5.869777e-02	-1.589396e-02	2.605445e-03	3.425784e-01	1.738946e-01	1.686837e-01
29            	2.177181e-01	9.391013e-02	1.238080e-01	2.020443e-01	4.668165e-02	1.553626e-01	-5.434049e-02	-1.494894e-02	1.441776e-03	3.420174e-01	1.724505e-01	1.695669e-01
30            	2.165557e-01	9.390190e-02	1.226538e-01	2.039572e-01	5.146390e-02	1.524933e-01	-5.051470e-02	-1.437597e-02	1.814211e-04	3.413657e-01	1.708643e-01	1.705014e-01
31            	2.163251e-01	9.403117e-02	1.222939e-01	2.044917e-01	5.514529e-02	1.493464e-01	-4.710057e-02	-1.413137e-02	-1.189751e-03	3.409428e-01	1.692816e-01	1.716611e-01
32            	2.173469e-01	9.433421e-02	1.230127e-01	2.033184e-01	5.763357e-02	1.456848e-01	-4.402561e-02	-1.433926e-02	-2.703278e-03	3.409079e-01	1.677507e-01	1.731572e-01
33            	2.194484e-01	9.481310e-02	1.246353e-01	2.008486e-01	5.915751e-02	1.416911e-01	-4.126681e-02	-1.491112e-02	-4.290532e-03	3.412574e-01	1.663382e-01	1.749192e-01
34            	2.222580e-01	9.521915e-02	1.270389e-01	1.967646e-01	5.948638e-02	1.372782e-01	-3.889593e-02	-1.590985e-02	-5.943989e-03	3.418485e-01	1.649802e-01	1.768682e-01
35            	2.253280e-01	9.531875e-02	1.300093e-01	1.909915e-01	5.864511e-02	1.323464e-01	-3.685065e-02	-1.734525e-02	-7.611591e-03	3.425984e-01	1.636876e-01	1.789108e-01
36            	2.282153e-01	9.495041e-02	1.332649e-01	1.836201e-01	5.659754e-02	1.270226e-01	-3.521254e-02	-1.915726e-02	-9.245788e-03	3.433171e-01	1.624128e-01	1.809043e-01
37            	2.307024e-01	9.416703e-02	1.365353e-01	1.752864e-01	5.370887e-02	1.215776e-01	-3.393435e-02	-2.118414e-02	-1.081358e-02	3.440356e-01	1.612042e-01	1.828314e-01
38            	2.327332e-01	9.322070e-02	1.395125e-01	1.670410e-01	5.050502e-02	1.165360e-01	-3.301550e-02	-2.314589e-02	-1.229889e-02	3.447065e-01	1.600544e-01	1.846521e-01
39            	2.343486e-01	9.223327e-02	1.421153e-01	1.593589e-01	4.733720e-02	1.120217e-01	-3.234225e-02	-2.494103e-02	-1.365016e-02	3.454601e-01	1.590799e-01	1.863802e-01
40            	2.357614e-01	9.155670e-02	1.442047e-01	1.532139e-01	4.483918e-02	1.083747e-01	-3.176776e-02	-2.632398e-02	-1.490628e-02	3.462673e-01	1.582274e-01	1.880399e-01
41            	2.371573e-01	9.129706e-02	1.458602e-01	1.487219e-01	4.319774e-02	1.055242e-01	-3.116323e-02	-2.728158e-02	-1.606479e-02	3.472248e-01	1.575476e-01	1.896772e-01
42            	2.386858e-01	9.155386e-02	1.471320e-01	1.460146e-01	4.256351e-02	1.034511e-01	-3.044381e-02	-2.778905e-02	-1.713521e-02	3.483304e-01	1.570300e-01	1.913004e-01
43            	2.404526e-01	9.228436e-02	1.481683e-01	1.447600e-01	4.285983e-02	1.019002e-01	-2.952018e-02	-2.794195e-02	-1.814813e-02	3.496105e-01	1.566571e-01	1.929534e-01
44            	2.425129e-01	9.331659e-02	1.491964e-01	1.441418e-01	4.356972e-02	1.005721e-01	-2.850117e-02	-2.793988e-02	-1.914233e-02	3.509762e-01	1.563457e-01	1.946304e-01
45            	2.448641e-01	9.450990e-02	1.503542e-01	1.435989e-01	4.437069e-02	9.922825e-02	-2.742878e-02	-2.792214e-02	-2.016460e-02	3.523559e-01	1.560134e-01	1.963425e-01
46            	2.474460e-01	9.576141e-02	1.516846e-01	1.428194e-01	4.513231e-02	9.768713e-02	-2.627741e-02	-2.796161e-02	-2.125856e-02	3.536068e-01	1.555449e-01	1.980620e-01
47            	2.502246e-01	9.692561e-02	1.532990e-01	1.413217e-01	4.556757e-02	9.575412e-02	-2.509328e-02	-2.818670e-02	-2.243959e-02	3.546938e-01	1.549073e-01	1.997865e-01
48            	2.530818e-01	9.795692e-02	1.551249e-01	1.390931e-01	4.558742e-02	9.350565e-02	-2.395911e-02	-2.858399e-02	-2.369291e-02	3.556135e-01	1.541138e-01	2.014997e-01
49            	2.560536e-01	9.890996e-02	1.571436e-01	1.362906e-01	4.521633e-02	9.107424e-02	-2.292896e-02	-2.911684e-02	-2.498698e-02	3.564882e-01	1.532571e-01	2.032311e-01
50            	2.591296e-01	9.986539e-02	1.592643e-01	1.331632e-01	4.452260e-02	8.864060e-02	-2.205900e-02	-2.969943e-02	-2.631084e-02	3.573026e-01	1.523405e-01	2.049621e-01
51            	2.623176e-01	1.008744e-01	1.614432e-01	1.298918e-01	4.360164e-02	8.629020e-02	-2.134428e-02	-3.028437e-02	-2.762596e-02	3.581151e-01	1.514316e-01	2.066835e-01
52            	2.656018e-01	1.019562e-01	1.636455e-01	1.265625e-01	4.236685e-02	8.419568e-02	-2.091442e-02	-3.084466e-02	-2.890372e-02	3.589232e-01	1.505579e-01	2.083653e-01
53            	2.689238e-01	1.030795e-01	1.658443e-01	1.232432e-01	4.088904e-02	8.235417e-02	-2.073256e-02	-3.138244e-02	-3.010094e-02	3.597884e-01	1.497932e-01	2.099951e-01
54            	2.722091e-01	1.041136e-01	1.680955e-01	1.195595e-01	3.891256e-02	8.064696e-02	-2.086720e-02	-3.199097e-02	-3.123377e-02	3.606268e-01	1.490796e-01	2.115472e-01
55            	2.754218e-01	1.049398e-01	1.704820e-01	1.151501e-01	3.624605e-02	7.890404e-02	-2.132900e-02	-3.277112e-02	-3.231569e-02	3.613843e-01	1.483765e-01	2.130078e-01
56            	2.785557e-01	1.054473e-01	1.731084e-01	1.096179e-01	3.274883e-02	7.686911e-02	-2.206014e-02	-3.383055e-02	-3.335828e-02	3.620185e-01	1.476510e-01	2.143675e-01
57            	2.815826e-01	1.055733e-01	1.760094e-01	1.028117e-01	2.836251e-02	7.444914e-02	-2.304331e-02	-3.521806e-02	-3.438961e-02	3.625127e-01	1.468667e-01	2.156460e-01
58            	2.845219e-01	1.052969e-01	1.792251e-01	9.464053e-02	2.321089e-02	7.142964e-02	-2.410938e-02	-3.696410e-02	-3.544461e-02	3.628221e-01	1.459665e-01	2.168557e-01
59            	2.873355e-01	1.045432e-01	1.827923e-01	8.493996e-02	1.728963e-02	6.765034e-02	-2.518036e-02	-3.912458e-02	-3.653824e-02	3.629770e-01	1.449503e-01	2.180268e-01
60            	2.900843e-01	1.033610e-01	1.867233e-01	7.382992e-02	1.084060e-02	6.298932e-02	-2.607436e-02	-4.168114e-02	-3.768715e-02	3.629943e-01	1.438100e-01	2.191843e-01
61            	2.928052e-01	1.018137e-01	1.909915e-01	6.153987e-02	4.031631e-03	5.750823e-02	-2.673830e-02	-4.458890e-02	-3.888566e-02	3.629806e-01	1.426046e-01	2.203759e-01
62            	2.955356e-01	9.994510e-02	1.955905e-01	4.817763e-02	-3.037174e-03	5.121481e-02	-2.712599e-02	-4.782270e-02	-4.011197e-02	3.629149e-01	1.413455e-01	2.215694e-01
63            	2.983127e-01	9.786087e-02	2.004519e-01	3.411400e-02	-1.019910e-02	4.431310e-02	-2.725610e-02	-5.129549e-02	-4.134496e-02	3.628241e-01	1.400671e-01	2.227570e-01
64            	3.011776e-01	9.569491e-02	2.054827e-01	1.975166e-02	-1.726495e-02	3.701661e-02	-2.714078e-02	-5.489388e-02	-4.258440e-02	3.626305e-01	1.387309e-01	2.238997e-01
65            	3.041487e-01	9.352792e-02	2.106208e-01	5.340727e-03	-2.414090e-02	2.948163e-02	-2.681126e-02	-5.854645e-02	-4.381614e-02	3.623228e-01	1.373453e-01	2.249775e-01
66            	3.072369e-01	9.146902e-02	2.157679e-01	-8.806880e-03	-3.069541e-02	2.188853e-02	-2.629197e-02	-6.214944e-02	-4.505812e-02	3.618287e-01	1.358562e-01	2.259725e-01
67            	3.104567e-01	8.958463e-02	2.208720e-01	-2.248917e-02	-3.681982e-02	1.433065e-02	-2.557523e-02	-6.564370e-02	-4.630977e-02	3.611778e-01	1.342791e-01	2.268987e-01
68            	3.138183e-01	8.796662e-02	2.258517e-01	-3.538479e-02	-4.226963e-02	6.884836e-03	-2.457723e-02	-6.894253e-02	-4.757497e-02	3.603550e-01	1.326025e-01	2.277524e-01
69            	3.172648e-01	8.663027e-02	2.306345e-01	-4.733864e-02	-4.695583e-02	-3.828145e-04	-2.328651e-02	-7.200213e-02	-4.886507e-02	3.593720e-01	1.308209e-01	2.285510e-01
70            	3.206971e-01	8.564422e-02	2.350529e-01	-5.794660e-02	-5.069985e-02	-7.246748e-03	-2.172655e-02	-7.470432e-02	-5.018282e-02	3.582105e-01	1.289225e-01	2.292881e-01
71            	3.239574e-01	8.492083e-02	2.390366e-01	-6.725769e-02	-5.360679e-02	-1.365090e-02	-1.997795e-02	-7.705786e-02	-5.146552e-02	3.569301e-01	1.269995e-01	2.299306e-01
72            	3.269450e-01	8.446028e-02	2.424847e-01	-7.508840e-02	-5.571431e-02	-1.937408e-02	-1.817011e-02	-7.901220e-02	-5.268480e-02	3.555728e-01	1.251016e-01	2.304712e-01
73            	3.295101e-01	8.421246e-02	2.452976e-01	-8.132689e-02	-5.712738e-02	-2.419951e-02	-1.646393e-02	-8.054257e-02	-5.377677e-02	3.542004e-01	1.233234e-01	2.308770e-01
74            	3.316151e-01	8.414297e-02	2.474721e-01	-8.596983e-02	-5.792757e-02	-2.804226e-02	-1.494266e-02	-8.166456e-02	-5.470499e-02	3.529122e-01	1.217511e-01	2.311611e-01
75            	3.333462e-01	8.422551e-02	2.491207e-01	-8.918320e-02	-5.828168e-02	-3.090152e-02	-1.369008e-02	-8.244760e-02	-5.546740e-02	3.518753e-01	1.204702e-01	2.314050e-01
76            	3.348001e-01	8.439093e-02	2.504092e-01	-9.136664e-02	-5.843344e-02	-3.293321e-02	-1.275012e-02	-8.300914e-02	-5.611635e-02	3.511461e-01	1.194567e-01	2.316894e-01
77            	3.360051e-01	8.466380e-02	2.513413e-01	-9.252155e-02	-5.840819e-02	-3.411336e-02	-1.214741e-02	-8.333875e-02	-5.670156e-02	3.506745e-01	1.186357e-01	2.320388e-01
78            	3.369881e-01	8.499889e-02	2.519892e-01	-9.290106e-02	-5.828614e-02	-3.461492e-02	-1.183561e-02	-8.349514e-02	-5.723703e-02	3.504529e-01	1.179894e-01	2.324635e-01
79            	3.377531e-01	8.531755e-02	2.524356e-01	-9.288128e-02	-5.814596e-02	-3.473531e-02	-1.170533e-02	-8.355900e-02	-5.775565e-02	3.503626e-01	1.174257e-01	2.329370e-01
80            	3.382695e-01	8.546268e-02	2.528068e-01	-9.303992e-02	-5.812107e-02	-3.491885e-02	-1.160111e-02	-8.367207e-02	-5.825500e-02	3.503270e-01	1.169085e-01	2.334185e-01
81            	3.385724e-01	8.542049e-02	2.531520e-01	-9.354760e-02	-5.822751e-02	-3.532009e-02	-1.145371e-02	-8.386573e-02	-5.874468e-02	3.502477e-01	1.163792e-01	2.338685e-01
82            	3.387612e-01	8.525680e-02	2.535043e-01	-9.439060e-02	-5.841327e-02	-3.597733e-02	-1.121797e-02	-8.412377e-02	-5.922078e-02	3.500720e-01	1.158152e-01	2.342568e-01
83            	3.389860e-01	8.511152e-02	2.538745e-01	-9.536423e-02	-5.859306e-02	-3.677118e-02	-1.091094e-02	-8.438147e-02	-5.970698e-02	3.497691e-01	1.151775e-01	2.345915e-01
84            	3.394238e-01	8.506857e-02	2.543552e-01	-9.650416e-02	-5.873752e-02	-3.776664e-02	-1.048544e-02	-8.464333e-02	-6.022472e-02	3.493353e-01	1.144429e-01	2.348923e-01
85            	3.402332e-01	8.525983e-02	2.549734e-01	-9.763007e-02	-5.878705e-02	-3.884301e-02	-9.972021e-03	-8.485679e-02	-6.080832e-02	3.487451e-01	1.135642e-01	2.351809e-01
86            	3.415094e-01	8.579320e-02	2.557162e-01	-9.852545e-02	-5.870514e-02	-3.982030e-02	-9.442418e-03	-8.496152e-02	-6.145078e-02	3.479901e-01	1.125443e-01	2.354458e-01
87            	3.433376e-01	8.670205e-02	2.566356e-01	-9.924607e-02	-5.856881e-02	-4.067725e-02	-8.945779e-03	-8.496677e-02	-6.217038e-02	3.470571e-01	1.113582e-01	2.356989e-01
88            	3.457301e-01	8.796900e-02	2.577611e-01	-9.989569e-02	-5.842619e-02	-4.146950e-02	-8.478343e-03	-8.489603e-02	-6.295375e-02	3.459314e-01	1.100120e-01	2.359195e-01
89            	3.486369e-01	8.956189e-02	2.590750e-01	-1.005179e-01	-5.832713e-02	-4.219075e-02	-8.068188e-03	-8.475658e-02	-6.379272e-02	3.445976e-01	1.085061e-01	2.360915e-01
90            	3.519935e-01	9.144370e-02	2.605498e-01	-1.011134e-01	-5.820649e-02	-4.290688e-02	-7.649806e-03	-8.455306e-02	-6.466557e-02	3.430433e-01	1.068561e-01	2.361872e-01
91            	3.557637e-01	9.355149e-02	2.622123e-01	-1.018096e-01	-5.809909e-02	-4.371046e-02	-7.194313e-03	-8.433038e-02	-6.558416e-02	3.413179e-01	1.050748e-01	2.362431e-01
92            	3.598523e-01	9.580500e-02	2.640473e-01	-1.026731e-01	-5.799267e-02	-4.468046e-02	-6.656108e-03	-8.412114e-02	-6.655899e-02	3.394507e-01	1.031663e-01	2.362843e-01
93            	3.642403e-01	9.817977e-02	2.660606e-01	-1.036685e-01	-5.789553e-02	-4.577298e-02	-6.061275e-03	-8.394041e-02	-6.761462e-02	3.375720e-01	1.011714e-01	2.364006e-01
94            	3.689109e-01	1.006934e-01	2.682175e-01	-1.046233e-01	-5.777261e-02	-4.685065e-02	-5.460979e-03	-8.376205e-02	-6.876499e-02	3.357784e-01	9.912421e-02	2.366542e-01
95            	3.738545e-01	1.033526e-01	2.705019e-01	-1.054540e-01	-5.766090e-02	-4.779312e-02	-4.933888e-03	-8.357465e-02	-7.000117e-02	3.341615e-01	9.707957e-02	2.370819e-01
96            	3.790326e-01	1.062142e-01	2.728184e-01	-1.058603e-01	-5.746738e-02	-4.839288e-02	-4.537247e-03	-8.330209e-02	-7.129887e-02	3.327422e-01	9.507225e-02	2.376700e-01
97            	3.843738e-01	1.092878e-01	2.750860e-01	-1.056711e-01	-5.715445e-02	-4.851663e-02	-4.318913e-03	-8.289908e-02	-7.262244e-02	3.315257e-01	9.314043e-02	2.383853e-01
98            	3.897641e-01	1.125767e-01	2.771874e-01	-1.046656e-01	-5.669595e-02	-4.796962e-02	-4.363166e-03	-8.230537e-02	-7.393376e-02	3.304854e-01	9.130894e-02	2.391765e-01
99            	3.950747e-01	1.160011e-01	2.790736e-01	-1.029223e-01	-5.615590e-02	-4.676640e-02	-4.694751e-03	-8.153629e-02	-7.521500e-02	3.295675e-01	8.956875e-02	2.399988e-01
100           	4.001182e-01	1.194071e-01	2.807112e-01	-1.006824e-01	-5.560362e-02	-4.507878e-02	-5.262419e-03	-8.065206e-02	-7.647019e-02	3.286807e-01	8.787017e-02	2.408106e-01
101           	4.047349e-01	1.226045e-01	2.821305e-01	-9.838967e-02	-5.520584e-02	-4.318382e-02	-6.011011e-03	-7.976301e-02	-7.770157e-02	3.277416e-01	8.616921e-02	2.415724e-01
102           	4.088082e-01	1.255039e-01	2.833043e-01	-9.617583e-02	-5.490740e-02	-4.126843e-02	-6.819484e-03	-7.890020e-02	-7.892090e-02	3.266663e-01	8.441223e-02	2.422540e-01
103           	4.122866e-01	1.280574e-01	2.842292e-01	-9.414933e-02	-5.470550e-02	-3.944383e-02	-7.630835e-03	-7.808591e-02	-8.012556e-02	3.254252e-01	8.258705e-02	2.428382e-01
104           	4.151996e-01	1.302884e-01	2.849112e-01	-9.227810e-02	-5.454416e-02	-3.773394e-02	-8.405112e-03	-7.731138e-02	-8.130638e-02	3.240510e-01	8.071913e-02	2.433319e-01
105           	4.176374e-01	1.322483e-01	2.853890e-01	-9.054015e-02	-5.442008e-02	-3.612007e-02	-9.150006e-03	-7.657036e-02	-8.244684e-02	3.226068e-01	7.885658e-02	2.437502e-01
106           	4.196993e-01	1.340234e-01	2.856759e-01	-8.879623e-02	-5.423916e-02	-3.455707e-02	-9.841044e-03	-7.582624e-02	-8.354428e-02	3.211495e-01	7.703047e-02	2.441190e-01
107           	4.215156e-01	1.357133e-01	2.858024e-01	-8.690680e-02	-5.392434e-02	-3.298246e-02	-1.047094e-02	-7.504454e-02	-8.460448e-02	3.197152e-01	7.525311e-02	2.444621e-01
108           	4.231388e-01	1.373753e-01	2.857635e-01	-8.475672e-02	-5.342251e-02	-3.133421e-02	-1.104415e-02	-7.419408e-02	-8.563271e-02	3.183194e-01	7.352702e-02	2.447924e-01
109           	4.245847e-01	1.390323e-01	2.855524e-01	-8.230155e-02	-5.274416e-02	-2.955739e-02	-1.159339e-02	-7.326003e-02	-8.661944e-02	3.169607e-01	7.186091e-02	2.450998e-01
110           	4.258398e-01	1.406707e-01	2.851691e-01	-7.957176e-02	-5.190269e-02	-2.766907e-02	-1.211681e-02	-7.224917e-02	-8.755619e-02	3.156287e-01	7.025814e-02	2.453705e-01
111           	4.268675e-01	1.422681e-01	2.845994e-01	-7.659781e-02	-5.095482e-02	-2.564299e-02	-1.265592e-02	-7.116568e-02	-8.842246e-02	3.142946e-01	6.872483e-02	2.455697e-01
112           	4.276500e-01	1.437660e-01	2.838841e-01	-7.357428e-02	-4.996973e-02	-2.360455e-02	-1.318259e-02	-7.005903e-02	-8.919235e-02	3.129550e-01	6.728515e-02	2.456698e-01
113           	4.282245e-01	1.451877e-01	2.830368e-01	-7.047988e-02	-4.895537e-02	-2.152451e-02	-1.371543e-02	-6.892452e-02	-8.988354e-02	3.116102e-01	6.592156e-02	2.456886e-01
114           	4.286202e-01	1.464817e-01	2.821385e-01	-6.755645e-02	-4.796544e-02	-1.959101e-02	-1.418721e-02	-6.782838e-02	-9.049396e-02	3.102841e-01	6.464808e-02	2.456360e-01
115           	4.288883e-01	1.476672e-01	2.812211e-01	-6.480841e-02	-4.697306e-02	-1.783534e-02	-1.456886e-02	-6.677700e-02	-9.103993e-02	3.089883e-01	6.345423e-02	2.455341e-01
116           	4.290985e-01	1.487514e-01	2.803471e-01	-6.235077e-02	-4.599056e-02	-1.636021e-02	-1.481518e-02	-6.579789e-02	-9.154946e-02	3.077037e-01	6.230239e-02	2.454013e-01
117           	4.293032e-01	1.497298e-01	2.795734e-01	-6.028521e-02	-4.501940e-02	-1.526580e-02	-1.487680e-02	-6.492179e-02	-9.202968e-02	3.064265e-01	6.118358e-02	2.452429e-01
118           	4.295421e-01	1.506349e-01	2.789072e-01	-5.857563e-02	-4.400872e-02	-1.456691e-02	-1.472091e-02	-6.413620e-02	-9.249281e-02	3.051353e-01	6.007482e-02	2.450604e-01
119           	4.298581e-01	1.514593e-01	2.783988e-01	-5.728888e-02	-4.295924e-02	-1.432964e-02	-1.431480e-02	-6.346974e-02	-9.293909e-02	3.038668e-01	5.899431e-02	2.448725e-01
120           	4.302694e-01	1.522023e-01	2.780671e-01	-5.645932e-02	-4.185866e-02	-1.460066e-02	-1.362900e-02	-6.293245e-02	-9.338053e-02	3.025976e-01	5.791826e-02	2.446793e-01
121           	4.307845e-01	1.528666e-01	2.779179e-01	-5.609287e-02	-4.075406e-02	-1.533882e-02	-1.270762e-02	-6.252565e-02	-9.381194e-02	3.013474e-01	5.686176e-02	2.444856e-01
122           	4.314058e-01	1.534901e-01	2.779157e-01	-5.606436e-02	-3.963525e-02	-1.642911e-02	-1.160307e-02	-6.221279e-02	-9.423368e-02	3.001109e-01	5.582175e-02	2.442891e-01
123           	4.320823e-01	1.540921e-01	2.779902e-01	-5.621506e-02	-3.851397e-02	-1.770109e-02	-1.040644e-02	-6.194906e-02	-9.461908e-02	2.988847e-01	5.482327e-02	2.440614e-01
124           	4.327775e-01	1.546953e-01	2.780823e-01	-5.641140e-02	-3.738218e-02	-1.902921e-02	-9.176484e-03	-6.169351e-02	-9.496000e-02	2.976302e-01	5.385511e-02	2.437751e-01
125           	4.334182e-01	1.552821e-01	2.781362e-01	-5.660464e-02	-3.626197e-02	-2.034267e-02	-7.959648e-03	-6.142705e-02	-9.524184e-02	2.963046e-01	5.291046e-02	2.433941e-01
126           	4.339668e-01	1.558571e-01	2.781098e-01	-5.671558e-02	-3.512397e-02	-2.159161e-02	-6.766182e-03	-6.112635e-02	-9.546205e-02	2.948739e-01	5.197490e-02	2.428990e-01
127           	4.344448e-01	1.564614e-01	2.779834e-01	-5.663040e-02	-3.391032e-02	-2.272007e-02	-5.595124e-03	-6.076099e-02	-9.562623e-02	2.933266e-01	5.103706e-02	2.422895e-01
128           	4.347903e-01	1.570788e-01	2.777115e-01	-5.631278e-02	-3.258444e-02	-2.372834e-02	-4.428050e-03	-6.031631e-02	-9.573388e-02	2.915976e-01	5.006490e-02	2.415327e-01
129           	4.349903e-01	1.576869e-01	2.773034e-01	-5.579718e-02	-3.111648e-02	-2.468070e-02	-3.217894e-03	-5.980828e-02	-9.576913e-02	2.897108e-01	4.908629e-02	2.406246e-01
130           	4.349690e-01	1.582366e-01	2.767324e-01	-5.512858e-02	-2.952961e-02	-2.559897e-02	-1.965321e-03	-5.924789e-02	-9.572138e-02	2.876542e-01	4.810571e-02	2.395485e-01
131           	4.347300e-01	1.587325e-01	2.759975e-01	-5.427191e-02	-2.781845e-02	-2.645345e-02	-6.824992e-04	-5.863250e-02	-9.557596e-02	2.855003e-01	4.717420e-02	2.383261e-01
132           	4.342241e-01	1.591553e-01	2.750688e-01	-5.322520e-02	-2.606396e-02	-2.716124e-02	5.486426e-04	-5.795678e-02	-9.532931e-02	2.832791e-01	4.631023e-02	2.369689e-01
133           	4.334852e-01	1.595230e-01	2.739622e-01	-5.196982e-02	-2.424791e-02	-2.772191e-02	1.737001e-03	-5.721956e-02	-9.499672e-02	2.810553e-01	4.553091e-02	2.355244e-01
134           	4.324998e-01	1.598015e-01	2.726983e-01	-5.060008e-02	-2.247701e-02	-2.812307e-02	2.823029e-03	-5.644835e-02	-9.457972e-02	2.788832e-01	4.486188e-02	2.340213e-01
135           	4.313248e-01	1.599983e-01	2.713265e-01	-4.915812e-02	-2.076418e-02	-2.839394e-02	3.814877e-03	-5.566408e-02	-9.409753e-02	2.768434e-01	4.432417e-02	2.325192e-01
136           	4.299628e-01	1.601068e-01	2.698559e-01	-4.765743e-02	-1.916509e-02	-2.849234e-02	4.663626e-03	-5.487455e-02	-9.356379e-02	2.749630e-01	4.391770e-02	2.310453e-01
137           	4.284226e-01	1.601080e-01	2.683146e-01	-4.611962e-02	-1.770005e-02	-2.841957e-02	5.359764e-03	-5.410330e-02	-9.298406e-02	2.733107e-01	4.367130e-02	2.296394e-01
138           	4.266874e-01	1.599746e-01	2.667128e-01	-4.460627e-02	-1.638875e-02	-2.821752e-02	5.914383e-03	-5.336910e-02	-9.237361e-02	2.718601e-01	4.355646e-02	2.283037e-01
139           	4.248038e-01	1.597012e-01	2.651026e-01	-4.319135e-02	-1.523518e-02	-2.795617e-02	6.360495e-03	-5.270067e-02	-9.175796e-02	2.706238e-01	4.355396e-02	2.270699e-01
140           	4.228404e-01	1.593203e-01	2.635201e-01	-4.189182e-02	-1.424294e-02	-2.764888e-02	6.702972e-03	-5.209989e-02	-9.117439e-02	2.695748e-01	4.361302e-02	2.259618e-01
141           	4.208820e-01	1.588536e-01	2.620284e-01	-4.077367e-02	-1.344693e-02	-2.732674e-02	6.939905e-03	-5.158738e-02	-9.064340e-02	2.687235e-01	4.371837e-02	2.250052e-01
142           	4.190145e-01	1.583087e-01	2.607059e-01	-4.000615e-02	-1.293375e-02	-2.707240e-02	7.069324e-03	-5.119861e-02	-9.020170e-02	2.680214e-01	4.380902e-02	2.242124e-01
143           	4.173036e-01	1.576902e-01	2.596134e-01	-3.970688e-02	-1.277838e-02	-2.692850e-02	7.075058e-03	-5.096159e-02	-8.987206e-02	2.674703e-01	4.386308e-02	2.236072e-01
144           	4.157823e-01	1.569943e-01	2.587880e-01	-3.998339e-02	-1.307833e-02	-2.690507e-02	6.913369e-03	-5.089688e-02	-8.966336e-02	2.670557e-01	4.386448e-02	2.231912e-01
145           	4.144719e-01	1.562200e-01	2.582519e-01	-4.089823e-02	-1.386750e-02	-2.703073e-02	6.581616e-03	-5.101592e-02	-8.958651e-02	2.667712e-01	4.379912e-02	2.229721e-01
146           	4.133756e-01	1.553946e-01	2.579810e-01	-4.238869e-02	-1.510474e-02	-2.728395e-02	6.089606e-03	-5.129320e-02	-8.964831e-02	2.665764e-01	4.363988e-02	2.229365e-01
147           	4.124513e-01	1.544936e-01	2.579577e-01	-4.447554e-02	-1.677468e-02	-2.770086e-02	5.463091e-03	-5.173209e-02	-8.984738e-02	2.664636e-01	4.338440e-02	2.230792e-01
148           	4.116629e-01	1.535546e-01	2.581082e-01	-4.697371e-02	-1.876157e-02	-2.821214e-02	4.725284e-03	-5.227679e-02	-9.017383e-02	2.663805e-01	4.301643e-02	2.233641e-01
149           	4.109583e-01	1.525547e-01	2.584036e-01	-4.988123e-02	-2.106636e-02	-2.881487e-02	3.874258e-03	-5.292449e-02	-9.060841e-02	2.663361e-01	4.255963e-02	2.237764e-01
150           	4.103009e-01	1.515309e-01	2.587700e-01	-5.299883e-02	-2.356646e-02	-2.943238e-02	2.932961e-03	-5.361957e-02	-9.113140e-02	2.663051e-01	4.202114e-02	2.242839e-01
151           	4.096425e-01	1.504593e-01	2.591831e-01	-5.632751e-02	-2.628214e-02	-3.004537e-02	1.881617e-03	-5.436190e-02	-9.169949e-02	2.663088e-01	4.145491e-02	2.248539e-01
152           	4.089894e-01	1.494040e-01	2.595854e-01	-5.964567e-02	-2.907435e-02	-3.057133e-02	7.484919e-04	-5.509070e-02	-9.229013e-02	2.663184e-01	4.086905e-02	2.254493e-01
153           	4.083105e-01	1.483560e-01	2.599545e-01	-6.293468e-02	-3.194880e-02	-3.098588e-02	-4.814632e-04	-5.579926e-02	-9.287818e-02	2.663297e-01	4.028668e-02	2.260430e-01
154           	4.076500e-01	1.474050e-01	2.602451e-01	-6.594679e-02	-3.473342e-02	-3.121337e-02	-1.760025e-03	-5.642005e-02	-9.346380e-02	2.662888e-01	3.968063e-02	2.266082e-01
155           	4.070372e-01	1.465937e-01	2.604435e-01	-6.857385e-02	-3.733177e-02	-3.124208e-02	-3.044842e-03	-5.692487e-02	-9.405654e-02	2.661782e-01	3.903254e-02	2.271456e-01
156           	4.065151e-01	1.459788e-01	2.605362e-01	-7.068131e-02	-3.961073e-02	-3.107058e-02	-4.270074e-03	-5.727869e-02	-9.467701e-02	2.659463e-01	3.829613e-02	2.276502e-01
157           	4.060867e-01	1.455782e-01	2.605085e-01	-7.219763e-02	-4.148589e-02	-3.071174e-02	-5.387078e-03	-5.746518e-02	-9.532027e-02	2.655668e-01	3.746311e-02	2.281037e-01
158           	4.057042e-01	1.453695e-01	2.603347e-01	-7.315183e-02	-4.297548e-02	-3.017635e-02	-6.399564e-03	-5.748259e-02	-9.597152e-02	2.649744e-01	3.651569e-02	2.284587e-01
159           	4.053357e-01	1.453344e-01	2.600014e-01	-7.356327e-02	-4.407239e-02	-2.949088e-02	-7.290752e-03	-5.733351e-02	-9.659324e-02	2.641358e-01	3.547465e-02	2.286611e-01
160           	4.049040e-01	1.454112e-01	2.594928e-01	-7.356577e-02	-4.484704e-02	-2.871873e-02	-8.064152e-03	-5.704077e-02	-9.714717e-02	2.629758e-01	3.434074e-02	2.286351e-01
161           	4.044151e-01	1.455823e-01	2.588328e-01	-7.323170e-02	-4.532365e-02	-2.790805e-02	-8.707799e-03	-5.662523e-02	-9.761698e-02	2.615084e-01	3.313721e-02	2.283712e-01
162           	4.038387e-01	1.457974e-01	2.580413e-01	-7.269004e-02	-4.558889e-02	-2.710115e-02	-9.243868e-03	-5.612199e-02	-9.798385e-02	2.597550e-01	3.189363e-02	2.278613e-01
163           	4.032186e-01	1.460675e-01	2.571511e-01	-7.194352e-02	-4.566437e-02	-2.627915e-02	-9.692612e-03	-5.554184e-02	-9.824427e-02	2.577916e-01	3.065155e-02	2.271401e-01
164           	4.025886e-01	1.464026e-01	2.561860e-01	-7.099910e-02	-4.555462e-02	-2.544448e-02	-1.005507e-02	-5.489169e-02	-9.840239e-02	2.556685e-01	2.943186e-02	2.262366e-01
165           	4.020024e-01	1.468022e-01	2.552002e-01	-6.993640e-02	-4.532307e-02	-2.461333e-02	-1.035487e-02	-5.419903e-02	-9.848776e-02	2.534726e-01	2.824853e-02	2.252240e-01
166           	4.014999e-01	1.472759e-01	2.542240e-01	-6.876470e-02	-4.497199e-02	-2.379272e-02	-1.058964e-02	-5.347406e-02	-9.852892e-02	2.512736e-01	2.710787e-02	2.241657e-01