# Force and moment coefficients
# dragDir     : (1.000000e+00 0.000000e+00 0.000000e+00)
# sideDir     : (0.000000e+00 1.000000e+00 0.000000e+00)
# liftDir     : (0.000000e+00 0.000000e+00 1.000000e+00)
# rollAxis    : (1.000000e+00 0.000000e+00 0.000000e+00)
# pitchAxis   : (0.000000e+00 1.000000e+00 0.000000e+00)
# yawAxis     : (0.000000e+00 0.000000e+00 1.000000e+00)
# magUInf     : 1.750000e+01
# lRef        : 1.854000e+00
# Aref        : 6.450000e-01
# CofR        : (0.000000e+00 0.000000e+00 0.000000e+00)
#
# Time        	Cd            	Cd(f)         	Cd(r)         	Cl            	Cl(f)         	Cl(r)         	CmPitch       	CmRoll        	CmYaw         	Cs            	Cs(f)         	Cs(r)         
1             	2.479571e-01	-1.317584e-01	3.797154e-01	-6.733469e-01	-5.629342e-01	-1.104128e-01	-2.262607e-01	-2.557369e-01	3.975223e-02	4.935928e-01	2.865486e-01	2.070442e-01
2             	3.871384e-01	-2.247390e-01	6.118774e-01	-4.552276e-01	-4.367827e-01	-1.844487e-02	-2.091689e-01	-4.183082e-01	6.922348e-02	1.193485e+00	6.659661e-01	5.275192e-01
3             	5.230881e-01	-3.031700e-01	8.262581e-01	-2.354872e-01	-3.211006e-01	8.561336e-02	-2.033570e-01	-5.647140e-01	9.527325e-02	1.832712e+00	1.011629e+00	8.210826e-01
4             	5.884456e-01	-3.596211e-01	9.480667e-01	-6.250534e-02	-2.487777e-01	1.862723e-01	-2.175250e-01	-6.538439e-01	1.194092e-01	2.238751e+00	1.238785e+00	9.999665e-01
5             	5.578217e-01	-3.953885e-01	9.532102e-01	4.495864e-02	-2.285092e-01	2.734679e-01	-2.509885e-01	-6.742993e-01	1.419754e-01	2.362934e+00	1.323442e+00	1.039492e+00
6             	4.490061e-01	-4.137374e-01	8.627435e-01	9.444522e-02	-2.507168e-01	3.451620e-01	-2.979394e-01	-6.382405e-01	1.612313e-01	2.254613e+00	1.288538e+00	9.660753e-01
7             	3.062933e-01	-4.180592e-01	7.243525e-01	1.053907e-01	-2.943182e-01	3.997089e-01	-3.470136e-01	-5.712059e-01	1.747172e-01	2.016608e+00	1.183021e+00	8.335870e-01
8             	1.786396e-01	-4.105641e-01	5.892037e-01	1.060297e-01	-3.394349e-01	4.454646e-01	-3.924498e-01	-4.998839e-01	1.807589e-01	1.759482e+00	1.060500e+00	6.989823e-01
9             	1.019961e-01	-3.929274e-01	4.949235e-01	1.175209e-01	-3.686940e-01	4.862149e-01	-4.274545e-01	-4.439255e-01	1.796714e-01	1.565846e+00	9.625944e-01	6.032516e-01
10            	9.011782e-02	-3.695754e-01	4.596932e-01	1.377531e-01	-3.727650e-01	5.105182e-01	-4.416416e-01	-4.146343e-01	1.721157e-01	1.472960e+00	9.085955e-01	5.643640e-01
11            	1.331330e-01	-3.442728e-01	4.774057e-01	1.674239e-01	-3.527281e-01	5.201520e-01	-4.364401e-01	-4.108393e-01	1.604559e-01	1.476902e+00	8.989068e-01	5.779950e-01
12            	2.066628e-01	-3.206865e-01	5.273492e-01	2.064644e-01	-3.162939e-01	5.227582e-01	-4.195260e-01	-4.240178e-01	1.476061e-01	1.546828e+00	9.210201e-01	6.258078e-01
13            	2.833755e-01	-3.023946e-01	5.857700e-01	2.466970e-01	-2.743774e-01	5.210743e-01	-3.977259e-01	-4.440823e-01	1.356880e-01	1.641424e+00	9.564000e-01	6.850240e-01
14            	3.420320e-01	-2.904535e-01	6.324855e-01	2.854945e-01	-2.317452e-01	5.172397e-01	-3.744925e-01	-4.614695e-01	1.252793e-01	1.725233e+00	9.878958e-01	7.373372e-01
15            	3.717729e-01	-2.847977e-01	6.565707e-01	3.191394e-01	-1.929481e-01	5.120875e-01	-3.525178e-01	-4.706842e-01	1.165540e-01	1.776732e+00	1.004920e+00	7.718120e-01
16            	3.729577e-01	-2.836806e-01	6.566383e-01	3.472370e-01	-1.602991e-01	5.075361e-01	-3.339176e-01	-4.701595e-01	1.092165e-01	1.790371e+00	1.004402e+00	7.859691e-01
17            	3.542226e-01	-2.850226e-01	6.392452e-01	3.690031e-01	-1.338262e-01	5.028293e-01	-3.183277e-01	-4.621339e-01	1.027825e-01	1.773618e+00	9.895913e-01	7.840264e-01
18            	3.277186e-01	-2.863194e-01	6.140380e-01	3.862810e-01	-1.121236e-01	4.984047e-01	-3.052642e-01	-4.501787e-01	9.685985e-02	1.740417e+00	9.670683e-01	7.733486e-01
19            	3.042715e-01	-2.858123e-01	5.900838e-01	4.010883e-01	-9.339728e-02	4.944856e-01	-2.939414e-01	-4.379480e-01	9.135998e-02	1.705091e+00	9.439054e-01	7.611854e-01
20            	2.911152e-01	-2.824154e-01	5.735306e-01	4.162231e-01	-7.513446e-02	4.913576e-01	-2.832460e-01	-4.279730e-01	8.624424e-02	1.678273e+00	9.253805e-01	7.528921e-01
21            	2.904990e-01	-2.761810e-01	5.666800e-01	4.330920e-01	-5.585437e-02	4.889463e-01	-2.724004e-01	-4.214305e-01	8.152282e-02	1.664576e+00	9.138110e-01	7.507653e-01
22            	3.004579e-01	-2.678477e-01	5.683056e-01	4.526147e-01	-3.473596e-02	4.873507e-01	-2.610433e-01	-4.180766e-01	7.719967e-02	1.663401e+00	9.089004e-01	7.545010e-01
23            	3.164134e-01	-2.585536e-01	5.749670e-01	4.750392e-01	-1.201213e-02	4.870513e-01	-2.495317e-01	-4.167603e-01	7.336764e-02	1.670852e+00	9.087935e-01	7.620582e-01
24            	3.333140e-01	-2.493786e-01	5.826926e-01	4.999799e-01	1.157657e-02	4.884034e-01	-2.384134e-01	-4.160356e-01	7.008088e-02	1.681636e+00	9.108990e-01	7.707373e-01
25            	3.473194e-01	-2.412538e-01	5.885732e-01	5.258145e-01	3.474316e-02	4.910714e-01	-2.281641e-01	-4.149135e-01	6.736495e-02	1.691284e+00	9.130069e-01	7.782769e-01
26            	3.564488e-01	-2.345443e-01	5.909931e-01	5.513820e-01	5.659490e-02	4.947871e-01	-2.190961e-01	-4.127687e-01	6.521272e-02	1.697002e+00	9.137138e-01	7.832883e-01
27            	3.606637e-01	-2.293492e-01	5.900130e-01	5.748248e-01	7.579895e-02	4.990258e-01	-2.116134e-01	-4.096811e-01	6.362754e-02	1.698161e+00	9.127080e-01	7.854530e-01
28            	3.614200e-01	-2.254411e-01	5.868610e-01	5.942806e-01	9.133866e-02	5.029419e-01	-2.058016e-01	-4.061510e-01	6.254627e-02	1.695489e+00	9.102910e-01	7.851984e-01
29            	3.606876e-01	-2.224529e-01	5.831405e-01	6.087270e-01	1.031741e-01	5.055529e-01	-2.011894e-01	-4.027967e-01	6.187876e-02	1.690488e+00	9.071228e-01	7.833653e-01
30            	3.600729e-01	-2.199024e-01	5.799752e-01	6.187860e-01	1.118534e-01	5.069325e-01	-1.975396e-01	-3.999388e-01	6.162030e-02	1.684842e+00	9.040415e-01	7.808009e-01
31            	3.607761e-01	-2.175638e-01	5.783398e-01	6.244021e-01	1.175412e-01	5.068609e-01	-1.946598e-01	-3.979518e-01	6.174269e-02	1.679887e+00	9.016861e-01	7.782008e-01
32            	3.632188e-01	-2.151615e-01	5.783803e-01	6.268316e-01	1.208093e-01	5.060222e-01	-1.926065e-01	-3.967709e-01	6.218810e-02	1.676310e+00	9.003433e-01	7.759671e-01
33            	3.671486e-01	-2.124408e-01	5.795893e-01	6.285638e-01	1.236417e-01	5.049221e-01	-1.906402e-01	-3.960150e-01	6.283266e-02	1.674503e+00	9.000839e-01	7.744186e-01
34            	3.718653e-01	-2.097760e-01	5.816413e-01	6.288087e-01	1.254228e-01	5.033858e-01	-1.889815e-01	-3.957086e-01	6.369881e-02	1.674108e+00	9.007529e-01	7.733553e-01
35            	3.767024e-01	-2.069778e-01	5.836802e-01	6.300233e-01	1.279690e-01	5.020543e-01	-1.870427e-01	-3.953290e-01	6.461272e-02	1.675029e+00	9.021274e-01	7.729020e-01
36            	3.810989e-01	-2.041610e-01	5.852599e-01	6.324385e-01	1.313199e-01	5.011187e-01	-1.848994e-01	-3.947104e-01	6.554500e-02	1.676742e+00	9.039162e-01	7.728262e-01
37            	3.847761e-01	-2.014321e-01	5.862082e-01	6.358853e-01	1.352678e-01	5.006175e-01	-1.826749e-01	-3.938201e-01	6.644027e-02	1.678849e+00	9.058649e-01	7.729843e-01
38            	3.877157e-01	-1.987314e-01	5.864471e-01	6.406183e-01	1.402403e-01	5.003780e-01	-1.800689e-01	-3.925892e-01	6.719385e-02	1.681135e+00	9.077611e-01	7.733734e-01
39            	3.901552e-01	-1.959128e-01	5.860679e-01	6.470950e-01	1.460410e-01	5.010540e-01	-1.775065e-01	-3.909903e-01	6.776130e-02	1.683684e+00	9.096035e-01	7.740809e-01
40            	3.923255e-01	-1.930958e-01	5.854213e-01	6.541674e-01	1.522802e-01	5.018872e-01	-1.748035e-01	-3.892585e-01	6.799735e-02	1.686328e+00	9.111612e-01	7.751665e-01
41            	3.944771e-01	-1.904355e-01	5.849126e-01	6.605740e-01	1.583802e-01	5.021938e-01	-1.719068e-01	-3.876740e-01	6.781994e-02	1.689025e+00	9.123325e-01	7.766926e-01
42            	3.969306e-01	-1.879808e-01	5.849113e-01	6.652218e-01	1.642083e-01	5.010135e-01	-1.684026e-01	-3.864461e-01	6.710762e-02	1.691647e+00	9.129311e-01	7.787159e-01
43            	3.998033e-01	-1.859240e-01	5.857273e-01	6.668161e-01	1.691799e-01	4.976362e-01	-1.642282e-01	-3.858256e-01	6.588482e-02	1.694077e+00	9.129232e-01	7.811535e-01
44            	4.030667e-01	-1.843752e-01	5.874419e-01	6.645909e-01	1.729987e-01	4.915923e-01	-1.592968e-01	-3.859085e-01	6.420761e-02	1.695941e+00	9.121782e-01	7.837630e-01
45            	4.066370e-01	-1.833205e-01	5.899574e-01	6.588416e-01	1.753307e-01	4.835109e-01	-1.540901e-01	-3.866390e-01	6.221519e-02	1.697213e+00	9.108218e-01	7.863914e-01
46            	4.104176e-01	-1.827303e-01	5.931479e-01	6.497781e-01	1.760188e-01	4.737593e-01	-1.488703e-01	-3.879391e-01	6.005150e-02	1.697710e+00	9.089063e-01	7.888033e-01
47            	4.143689e-01	-1.824841e-01	5.968530e-01	6.381549e-01	1.752421e-01	4.629129e-01	-1.438354e-01	-3.896686e-01	5.783318e-02	1.697480e+00	9.065733e-01	7.909069e-01
48            	4.184169e-01	-1.823899e-01	6.008068e-01	6.250958e-01	1.734330e-01	4.516628e-01	-1.391149e-01	-3.915984e-01	5.564771e-02	1.696523e+00	9.039093e-01	7.926139e-01
49            	4.225020e-01	-1.822815e-01	6.047835e-01	6.116564e-01	1.713633e-01	4.402931e-01	-1.344649e-01	-3.935325e-01	5.348731e-02	1.694926e+00	9.009504e-01	7.939758e-01
50            	4.266177e-01	-1.820218e-01	6.086395e-01	5.986428e-01	1.695572e-01	4.290856e-01	-1.297642e-01	-3.953307e-01	5.134918e-02	1.692816e+00	8.977572e-01	7.950589e-01
51            	4.307982e-01	-1.817498e-01	6.125480e-01	5.853310e-01	1.681848e-01	4.171462e-01	-1.244807e-01	-3.971489e-01	4.915492e-02	1.690285e+00	8.942975e-01	7.959876e-01
52            	4.350732e-01	-1.814993e-01	6.165725e-01	5.715652e-01	1.669567e-01	4.046085e-01	-1.188259e-01	-3.990359e-01	4.687982e-02	1.687354e+00	8.905570e-01	7.967973e-01
53            	4.395168e-01	-1.813216e-01	6.208384e-01	5.570775e-01	1.656561e-01	3.914213e-01	-1.128826e-01	-4.010800e-01	4.452855e-02	1.684098e+00	8.865775e-01	7.975204e-01
54            	4.441116e-01	-1.812049e-01	6.253165e-01	5.420446e-01	1.639598e-01	3.780848e-01	-1.070625e-01	-4.032607e-01	4.217961e-02	1.680596e+00	8.824778e-01	7.981185e-01
55            	4.488949e-01	-1.812237e-01	6.301186e-01	5.259768e-01	1.616055e-01	3.643712e-01	-1.013828e-01	-4.056711e-01	3.991482e-02	1.676885e+00	8.783573e-01	7.985276e-01
56            	4.538717e-01	-1.813978e-01	6.352695e-01	5.087257e-01	1.583271e-01	3.503986e-01	-9.603577e-02	-4.083337e-01	3.779246e-02	1.672972e+00	8.742783e-01	7.986933e-01
57            	4.589853e-01	-1.817030e-01	6.406884e-01	4.906438e-01	1.540883e-01	3.365555e-01	-9.123360e-02	-4.111957e-01	3.589804e-02	1.668890e+00	8.703432e-01	7.985471e-01
58            	4.641586e-01	-1.821529e-01	6.463114e-01	4.719442e-01	1.488362e-01	3.231080e-01	-8.713592e-02	-4.142322e-01	3.428509e-02	1.664749e+00	8.666598e-01	7.980896e-01
59            	4.693387e-01	-1.827613e-01	6.521000e-01	4.528313e-01	1.427737e-01	3.100575e-01	-8.364189e-02	-4.174306e-01	3.298345e-02	1.660728e+00	8.633476e-01	7.973807e-01
60            	4.744372e-01	-1.834279e-01	6.578651e-01	4.340703e-01	1.363648e-01	2.977055e-01	-8.067034e-02	-4.206465e-01	3.195844e-02	1.656871e+00	8.603941e-01	7.964773e-01
61            	4.794190e-01	-1.840360e-01	6.634550e-01	4.163974e-01	1.298901e-01	2.865073e-01	-7.830856e-02	-4.237455e-01	3.117977e-02	1.653278e+00	8.578188e-01	7.954593e-01
62            	4.842151e-01	-1.845117e-01	6.687268e-01	4.003191e-01	1.236926e-01	2.766265e-01	-7.646699e-02	-4.266192e-01	3.061197e-02	1.649992e+00	8.556081e-01	7.943841e-01
63            	4.887589e-01	-1.848487e-01	6.736077e-01	3.861212e-01	1.178897e-01	2.682315e-01	-7.517093e-02	-4.292282e-01	3.025042e-02	1.647125e+00	8.538129e-01	7.933120e-01
64            	4.930116e-01	-1.850212e-01	6.780328e-01	3.740681e-01	1.126931e-01	2.613750e-01	-7.434091e-02	-4.315270e-01	3.011054e-02	1.644778e+00	8.524993e-01	7.922783e-01
65            	4.969666e-01	-1.850805e-01	6.820471e-01	3.638437e-01	1.080500e-01	2.557937e-01	-7.387182e-02	-4.335638e-01	3.018593e-02	1.642958e+00	8.516648e-01	7.912930e-01
66            	5.005840e-01	-1.850006e-01	6.855845e-01	3.555773e-01	1.042733e-01	2.513040e-01	-7.351535e-02	-4.352925e-01	3.043549e-02	1.641701e+00	8.512861e-01	7.904151e-01
67            	5.039041e-01	-1.847463e-01	6.886504e-01	3.491646e-01	1.013099e-01	2.478547e-01	-7.327243e-02	-4.366984e-01	3.078934e-02	1.640948e+00	8.512634e-01	7.896847e-01
68            	5.070608e-01	-1.841282e-01	6.911890e-01	3.451978e-01	9.951468e-02	2.456831e-01	-7.308423e-02	-4.376586e-01	3.115859e-02	1.640676e+00	8.514968e-01	7.891796e-01
69            	5.101475e-01	-1.830732e-01	6.932207e-01	3.437716e-01	9.875585e-02	2.450158e-01	-7.312995e-02	-4.381469e-01	3.145690e-02	1.640820e+00	8.518670e-01	7.889532e-01
70            	5.132228e-01	-1.814948e-01	6.947176e-01	3.451925e-01	9.916705e-02	2.460255e-01	-7.342920e-02	-4.381062e-01	3.162494e-02	1.641354e+00	8.523018e-01	7.890519e-01
71            	5.163205e-01	-1.794336e-01	6.957541e-01	3.491668e-01	1.005749e-01	2.485919e-01	-7.400853e-02	-4.375938e-01	3.160882e-02	1.642237e+00	8.527271e-01	7.895095e-01
72            	5.194372e-01	-1.769077e-01	6.963449e-01	3.554985e-01	1.028095e-01	2.526890e-01	-7.493973e-02	-4.366263e-01	3.142149e-02	1.643388e+00	8.531154e-01	7.902724e-01
73            	5.226097e-01	-1.740357e-01	6.966454e-01	3.633352e-01	1.056216e-01	2.577136e-01	-7.604599e-02	-4.353406e-01	3.103206e-02	1.644704e+00	8.533840e-01	7.913199e-01
74            	5.257576e-01	-1.710085e-01	6.967661e-01	3.716664e-01	1.087375e-01	2.629290e-01	-7.709576e-02	-4.338873e-01	3.047189e-02	1.646059e+00	8.535014e-01	7.925576e-01
75            	5.288678e-01	-1.678879e-01	6.967557e-01	3.801481e-01	1.120996e-01	2.680485e-01	-7.797444e-02	-4.323218e-01	2.978440e-02	1.647430e+00	8.534996e-01	7.939308e-01
76            	5.319193e-01	-1.647753e-01	6.966946e-01	3.882012e-01	1.155569e-01	2.726443e-01	-7.854366e-02	-4.307350e-01	2.902271e-02	1.648836e+00	8.534406e-01	7.953952e-01
77            	5.348648e-01	-1.617916e-01	6.966564e-01	3.952584e-01	1.189082e-01	2.763501e-01	-7.872095e-02	-4.292240e-01	2.822279e-02	1.650298e+00	8.533720e-01	7.969264e-01
78            	5.377274e-01	-1.590745e-01	6.968019e-01	4.004436e-01	1.218758e-01	2.785678e-01	-7.834597e-02	-4.279382e-01	2.739058e-02	1.651779e+00	8.532799e-01	7.984988e-01
79            	5.405389e-01	-1.565919e-01	6.971308e-01	4.039100e-01	1.245750e-01	2.793350e-01	-7.737999e-02	-4.268614e-01	2.652441e-02	1.653244e+00	8.531466e-01	8.000977e-01
80            	5.432831e-01	-1.543617e-01	6.976448e-01	4.056138e-01	1.269852e-01	2.786286e-01	-7.582174e-02	-4.260032e-01	2.562634e-02	1.654633e+00	8.529429e-01	8.016902e-01
81            	5.459656e-01	-1.523210e-01	6.982866e-01	4.060898e-01	1.292509e-01	2.768388e-01	-7.379393e-02	-4.253038e-01	2.470511e-02	1.655982e+00	8.526962e-01	8.032859e-01
82            	5.485672e-01	-1.504515e-01	6.990187e-01	4.054590e-01	1.313794e-01	2.740796e-01	-7.135012e-02	-4.247351e-01	2.376687e-02	1.657173e+00	8.523535e-01	8.048197e-01
83            	5.511062e-01	-1.486688e-01	6.997750e-01	4.042776e-01	1.333766e-01	2.709010e-01	-6.876219e-02	-4.242219e-01	2.283965e-02	1.658262e+00	8.519706e-01	8.062913e-01
84            	5.535794e-01	-1.469781e-01	7.005575e-01	4.025375e-01	1.351761e-01	2.673614e-01	-6.609266e-02	-4.237678e-01	2.194041e-02	1.659213e+00	8.515467e-01	8.076659e-01
85            	5.559997e-01	-1.453875e-01	7.013871e-01	4.002939e-01	1.367121e-01	2.635818e-01	-6.343485e-02	-4.233873e-01	2.108436e-02	1.660040e+00	8.511042e-01	8.089355e-01
86            	5.583691e-01	-1.439441e-01	7.023132e-01	3.973921e-01	1.378904e-01	2.595017e-01	-6.080565e-02	-4.231287e-01	2.025465e-02	1.660694e+00	8.506016e-01	8.100923e-01
87            	5.607286e-01	-1.426472e-01	7.033758e-01	3.937967e-01	1.386500e-01	2.551467e-01	-5.824836e-02	-4.230115e-01	1.943187e-02	1.661160e+00	8.500117e-01	8.111479e-01
88            	5.631029e-01	-1.415265e-01	7.046295e-01	3.893253e-01	1.389865e-01	2.503387e-01	-5.567610e-02	-4.230780e-01	1.854831e-02	1.661347e+00	8.492220e-01	8.121254e-01
89            	5.654707e-01	-1.405685e-01	7.060392e-01	3.842498e-01	1.389472e-01	2.453026e-01	-5.317773e-02	-4.233038e-01	1.756814e-02	1.661284e+00	8.482103e-01	8.130740e-01
90            	5.677914e-01	-1.397337e-01	7.075251e-01	3.789026e-01	1.386424e-01	2.402603e-01	-5.080895e-02	-4.236294e-01	1.648287e-02	1.660926e+00	8.469457e-01	8.139800e-01
91            	5.700152e-01	-1.389636e-01	7.089788e-01	3.737271e-01	1.382051e-01	2.355220e-01	-4.865844e-02	-4.239712e-01	1.531045e-02	1.660230e+00	8.454254e-01	8.148045e-01
92            	5.720767e-01	-1.381887e-01	7.102655e-01	3.692283e-01	1.377601e-01	2.314681e-01	-4.685401e-02	-4.242271e-01	1.409228e-02	1.659161e+00	8.436728e-01	8.154883e-01
93            	5.738981e-01	-1.374229e-01	7.113210e-01	3.655692e-01	1.372572e-01	2.283120e-01	-4.552739e-02	-4.243720e-01	1.288997e-02	1.657754e+00	8.417670e-01	8.159870e-01
94            	5.754780e-01	-1.366862e-01	7.121642e-01	3.626328e-01	1.365243e-01	2.261085e-01	-4.479213e-02	-4.244252e-01	1.173503e-02	1.656059e+00	8.397644e-01	8.162943e-01
95            	5.768103e-01	-1.360444e-01	7.128547e-01	3.601677e-01	1.354644e-01	2.247032e-01	-4.461940e-02	-4.244495e-01	1.065984e-02	1.654178e+00	8.377487e-01	8.164290e-01
96            	5.779459e-01	-1.354876e-01	7.134335e-01	3.580206e-01	1.340513e-01	2.239692e-01	-4.495897e-02	-4.244605e-01	9.661180e-03	1.652107e+00	8.357149e-01	8.163925e-01
97            	5.789287e-01	-1.350394e-01	7.139681e-01	3.560529e-01	1.322862e-01	2.237668e-01	-4.574029e-02	-4.245037e-01	8.711668e-03	1.649895e+00	8.336591e-01	8.162358e-01
98            	5.798099e-01	-1.346389e-01	7.144488e-01	3.544404e-01	1.302738e-01	2.241666e-01	-4.694637e-02	-4.245438e-01	7.797353e-03	1.647538e+00	8.315664e-01	8.159717e-01
99            	5.806210e-01	-1.343121e-01	7.149331e-01	3.531637e-01	1.280536e-01	2.251102e-01	-4.852830e-02	-4.246226e-01	6.934851e-03	1.645225e+00	8.295472e-01	8.156775e-01
100           	5.813645e-01	-1.340107e-01	7.153752e-01	3.526146e-01	1.258618e-01	2.267529e-01	-5.044556e-02	-4.246929e-01	6.147825e-03	1.643109e+00	8.277021e-01	8.154065e-01
101           	5.820272e-01	-1.337461e-01	7.157733e-01	3.530249e-01	1.238316e-01	2.291932e-01	-5.268079e-02	-4.247597e-01	5.475802e-03	1.641414e+00	8.261827e-01	8.152311e-01
102           	5.826335e-01	-1.334131e-01	7.160466e-01	3.549861e-01	1.222364e-01	2.327497e-01	-5.525664e-02	-4.247298e-01	4.957449e-03	1.640260e+00	8.250877e-01	8.151728e-01
103           	5.831237e-01	-1.330270e-01	7.161507e-01	3.586857e-01	1.212098e-01	2.374759e-01	-5.813302e-02	-4.245889e-01	4.621398e-03	1.639765e+00	8.245039e-01	8.152611e-01
104           	5.835476e-01	-1.325032e-01	7.160509e-01	3.643549e-01	1.209331e-01	2.434218e-01	-6.124439e-02	-4.242770e-01	4.473788e-03	1.639915e+00	8.244312e-01	8.154836e-01
105           	5.838882e-01	-1.318060e-01	7.156943e-01	3.721963e-01	1.215889e-01	2.506074e-01	-6.450924e-02	-4.237502e-01	4.506078e-03	1.640602e+00	8.248073e-01	8.157951e-01
106           	5.842231e-01	-1.308851e-01	7.151082e-01	3.820695e-01	1.231947e-01	2.588748e-01	-6.784007e-02	-4.229966e-01	4.658668e-03	1.641730e+00	8.255235e-01	8.162061e-01
107           	5.845376e-01	-1.296666e-01	7.142041e-01	3.941417e-01	1.257457e-01	2.683960e-01	-7.132513e-02	-4.219354e-01	4.869477e-03	1.643077e+00	8.264079e-01	8.166689e-01
108           	5.848411e-01	-1.280994e-01	7.129406e-01	4.083876e-01	1.292054e-01	2.791822e-01	-7.498841e-02	-4.205200e-01	5.099833e-03	1.644503e+00	8.273511e-01	8.171514e-01
109           	5.850982e-01	-1.262233e-01	7.113214e-01	4.243382e-01	1.332818e-01	2.910564e-01	-7.888727e-02	-4.187723e-01	5.278660e-03	1.645856e+00	8.282067e-01	8.176494e-01
110           	5.853028e-01	-1.240896e-01	7.093924e-01	4.415072e-01	1.377510e-01	3.037562e-01	-8.300263e-02	-4.167410e-01	5.386249e-03	1.647061e+00	8.289165e-01	8.181440e-01
111           	5.854675e-01	-1.217403e-01	7.072078e-01	4.593517e-01	1.423632e-01	3.169885e-01	-8.731267e-02	-4.144741e-01	5.378944e-03	1.647973e+00	8.293655e-01	8.186077e-01
112           	5.856820e-01	-1.192548e-01	7.049368e-01	4.770313e-01	1.469303e-01	3.301010e-01	-9.158530e-02	-4.120958e-01	5.192863e-03	1.648549e+00	8.294672e-01	8.190815e-01
113           	5.860058e-01	-1.166808e-01	7.026867e-01	4.939405e-01	1.512001e-01	3.427404e-01	-9.577015e-02	-4.096838e-01	4.782258e-03	1.648684e+00	8.291242e-01	8.195597e-01
114           	5.865336e-01	-1.141136e-01	7.006472e-01	5.091402e-01	1.549130e-01	3.542272e-01	-9.965710e-02	-4.073804e-01	4.113795e-03	1.648362e+00	8.282949e-01	8.200673e-01
115           	5.872704e-01	-1.115482e-01	6.988187e-01	5.223632e-01	1.579440e-01	3.644191e-01	-1.032375e-01	-4.051835e-01	3.158830e-03	1.647452e+00	8.268848e-01	8.205671e-01
116           	5.882359e-01	-1.089851e-01	6.972210e-01	5.333893e-01	1.602873e-01	3.731020e-01	-1.064074e-01	-4.031031e-01	1.915809e-03	1.645850e+00	8.248408e-01	8.210092e-01
117           	5.893929e-01	-1.064736e-01	6.958665e-01	5.420565e-01	1.619085e-01	3.801480e-01	-1.091198e-01	-4.011701e-01	4.323466e-04	1.643585e+00	8.222250e-01	8.213603e-01
118           	5.906583e-01	-1.040898e-01	6.947481e-01	5.483598e-01	1.628812e-01	3.854786e-01	-1.112987e-01	-3.994189e-01	-1.239544e-03	1.640738e+00	8.191296e-01	8.216087e-01
119           	5.918465e-01	-1.019490e-01	6.937955e-01	5.524551e-01	1.631867e-01	3.892684e-01	-1.130409e-01	-3.978723e-01	-2.992910e-03	1.637437e+00	8.157258e-01	8.217116e-01
120           	5.928054e-01	-1.000945e-01	6.928999e-01	5.547490e-01	1.628786e-01	3.918703e-01	-1.144959e-01	-3.964972e-01	-4.730473e-03	1.633789e+00	8.121641e-01	8.216250e-01
121           	5.933645e-01	-9.861504e-02	6.919796e-01	5.555569e-01	1.620243e-01	3.935326e-01	-1.157541e-01	-3.952973e-01	-6.360810e-03	1.630003e+00	8.086409e-01	8.213625e-01
122           	5.934964e-01	-9.750077e-02	6.909971e-01	5.550701e-01	1.607192e-01	3.943509e-01	-1.168159e-01	-3.942490e-01	-7.830108e-03	1.626140e+00	8.052398e-01	8.209000e-01
123           	5.932307e-01	-9.674136e-02	6.899721e-01	5.534944e-01	1.591434e-01	3.943510e-01	-1.176038e-01	-3.933567e-01	-9.082652e-03	1.622434e+00	8.021342e-01	8.202995e-01
124           	5.926836e-01	-9.620523e-02	6.888888e-01	5.511204e-01	1.574801e-01	3.936403e-01	-1.180801e-01	-3.925470e-01	-1.014548e-02	1.618830e+00	7.992696e-01	8.195605e-01
125           	5.919653e-01	-9.588380e-02	6.878491e-01	5.478060e-01	1.557316e-01	3.920744e-01	-1.181714e-01	-3.918665e-01	-1.099103e-02	1.615495e+00	7.967563e-01	8.187384e-01
126           	5.911273e-01	-9.570551e-02	6.868328e-01	5.436961e-01	1.540303e-01	3.896658e-01	-1.178178e-01	-3.912692e-01	-1.161290e-02	1.612369e+00	7.945718e-01	8.177976e-01
127           	5.901695e-01	-9.575174e-02	6.859213e-01	5.383055e-01	1.523581e-01	3.859474e-01	-1.167947e-01	-3.908365e-01	-1.200268e-02	1.609507e+00	7.927506e-01	8.167560e-01
128           	5.890153e-01	-9.605754e-02	6.850729e-01	5.313996e-01	1.507923e-01	3.806073e-01	-1.149075e-01	-3.905652e-01	-1.217194e-02	1.606733e+00	7.911945e-01	8.155384e-01
129           	5.876721e-01	-9.671210e-02	6.843842e-01	5.225297e-01	1.492939e-01	3.732358e-01	-1.119710e-01	-3.905482e-01	-1.212128e-02	1.604131e+00	7.899442e-01	8.141868e-01
130           	5.861268e-01	-9.761417e-02	6.837410e-01	5.122103e-01	1.479514e-01	3.642589e-01	-1.081538e-01	-3.906776e-01	-1.189364e-02	1.601528e+00	7.888701e-01	8.126574e-01
131           	5.844362e-01	-9.877892e-02	6.832152e-01	5.005540e-01	1.466148e-01	3.539391e-01	-1.036622e-01	-3.909970e-01	-1.150907e-02	1.599065e+00	7.880235e-01	8.110416e-01
132           	5.826839e-01	-1.000626e-01	6.827465e-01	4.883336e-01	1.453243e-01	3.430093e-01	-9.884252e-02	-3.914046e-01	-1.102361e-02	1.596716e+00	7.873343e-01	8.093815e-01
133           	5.810010e-01	-1.014042e-01	6.824052e-01	4.758774e-01	1.438784e-01	3.319989e-01	-9.406024e-02	-3.919047e-01	-1.044643e-02	1.594677e+00	7.868920e-01	8.077848e-01
134           	5.794670e-01	-1.027279e-01	6.821948e-01	4.635921e-01	1.421498e-01	3.214423e-01	-8.964622e-02	-3.924614e-01	-9.811964e-03	1.592965e+00	7.866706e-01	8.062945e-01
135           	5.781309e-01	-1.040028e-01	6.821337e-01	4.517255e-01	1.401693e-01	3.115562e-01	-8.569348e-02	-3.930682e-01	-9.127945e-03	1.591677e+00	7.867106e-01	8.049665e-01
136           	5.769782e-01	-1.051458e-01	6.821240e-01	4.407694e-01	1.381574e-01	3.026120e-01	-8.222727e-02	-3.936349e-01	-8.450127e-03	1.590772e+00	7.869360e-01	8.038363e-01
137           	5.760243e-01	-1.060392e-01	6.820635e-01	4.313573e-01	1.365769e-01	2.947804e-01	-7.910172e-02	-3.940513e-01	-7.825837e-03	1.590225e+00	7.872868e-01	8.029385e-01
138           	5.752171e-01	-1.066350e-01	6.818521e-01	4.237433e-01	1.357795e-01	2.879638e-01	-7.609216e-02	-3.942436e-01	-7.285048e-03	1.589900e+00	7.876650e-01	8.022351e-01
139           	5.745605e-01	-1.069389e-01	6.814994e-01	4.178542e-01	1.359943e-01	2.818599e-01	-7.293278e-02	-3.942192e-01	-6.834175e-03	1.589735e+00	7.880332e-01	8.017016e-01
140           	5.740012e-01	-1.070098e-01	6.810110e-01	4.133533e-01	1.371490e-01	2.762043e-01	-6.952763e-02	-3.940104e-01	-6.456653e-03	1.589616e+00	7.883513e-01	8.012646e-01
141           	5.735271e-01	-1.069500e-01	6.804771e-01	4.096884e-01	1.390539e-01	2.706345e-01	-6.579030e-02	-3.937135e-01	-6.118652e-03	1.589534e+00	7.886485e-01	8.008858e-01
142           	5.730932e-01	-1.068635e-01	6.799567e-01	4.064671e-01	1.414817e-01	2.649854e-01	-6.175189e-02	-3.934101e-01	-5.808317e-03	1.589545e+00	7.889640e-01	8.005806e-01
143           	5.726791e-01	-1.068488e-01	6.795279e-01	4.031744e-01	1.440900e-01	2.590843e-01	-5.749715e-02	-3.931884e-01	-5.504948e-03	1.589646e+00	7.893180e-01	8.003279e-01
144           	5.722250e-01	-1.070053e-01	6.792303e-01	3.995233e-01	1.465687e-01	2.529546e-01	-5.319296e-02	-3.931178e-01	-5.211245e-03	1.589845e+00	7.897113e-01	8.001338e-01
145           	5.717188e-01	-1.073799e-01	6.790987e-01	3.952568e-01	1.486672e-01	2.465895e-01	-4.896114e-02	-3.932393e-01	-4.935186e-03	1.590124e+00	7.901270e-01	7.999974e-01
146           	5.711549e-01	-1.080150e-01	6.791699e-01	3.902629e-01	1.502615e-01	2.400014e-01	-4.486996e-02	-3.935924e-01	-4.688431e-03	1.590492e+00	7.905577e-01	7.999345e-01
147           	5.705294e-01	-1.088809e-01	6.794103e-01	3.846304e-01	1.512704e-01	2.333601e-01	-4.104486e-02	-3.941456e-01	-4.457051e-03	1.590879e+00	7.909826e-01	7.998967e-01
148           	5.698277e-01	-1.099519e-01	6.797796e-01	3.785879e-01	1.516866e-01	2.269014e-01	-3.760740e-02	-3.948658e-01	-4.228442e-03	1.591329e+00	7.914361e-01	7.998930e-01
149           	5.690880e-01	-1.111270e-01	6.802150e-01	3.723982e-01	1.515492e-01	2.208490e-01	-3.464989e-02	-3.956710e-01	-3.984019e-03	1.591759e+00	7.918953e-01	7.998633e-01
150           	5.683429e-01	-1.122942e-01	6.806371e-01	3.665938e-01	1.510328e-01	2.155610e-01	-3.226411e-02	-3.964656e-01	-3.717807e-03	1.592162e+00	7.923630e-01	7.997986e-01
151           	5.676684e-01	-1.133060e-01	6.809744e-01	3.615989e-01	1.503392e-01	2.112598e-01	-3.046031e-02	-3.971402e-01	-3.410489e-03	1.592419e+00	7.927992e-01	7.996202e-01
152           	5.671123e-01	-1.140759e-01	6.811882e-01	3.578145e-01	1.497063e-01	2.081082e-01	-2.920098e-02	-3.976321e-01	-3.073524e-03	1.592582e+00	7.932176e-01	7.993647e-01
153           	5.667400e-01	-1.145199e-01	6.812599e-01	3.554868e-01	1.493742e-01	2.061126e-01	-2.836917e-02	-3.978899e-01	-2.700356e-03	1.592690e+00	7.936448e-01	7.990455e-01
154           	5.665473e-01	-1.146203e-01	6.811676e-01	3.547001e-01	1.494013e-01	2.052987e-01	-2.794869e-02	-3.978940e-01	-2.347571e-03	1.592740e+00	7.940223e-01	7.987174e-01
155           	5.665715e-01	-1.143186e-01	6.808902e-01	3.557449e-01	1.499866e-01	2.057583e-01	-2.788582e-02	-3.976044e-01	-2.016993e-03	1.592799e+00	7.943827e-01	7.984167e-01
156           	5.668384e-01	-1.136261e-01	6.804645e-01	3.584494e-01	1.511126e-01	2.073368e-01	-2.811210e-02	-3.970453e-01	-1.717002e-03	1.592882e+00	7.947238e-01	7.981578e-01
157           	5.673751e-01	-1.125308e-01	6.799059e-01	3.628784e-01	1.527584e-01	2.101200e-01	-2.868082e-02	-3.962184e-01	-1.444733e-03	1.593004e+00	7.950574e-01	7.979468e-01
158           	5.681779e-01	-1.111096e-01	6.792875e-01	3.684849e-01	1.546695e-01	2.138153e-01	-2.957289e-02	-3.951986e-01	-1.221142e-03	1.593083e+00	7.953203e-01	7.977626e-01
159           	5.692405e-01	-1.093711e-01	6.786116e-01	3.752241e-01	1.567650e-01	2.184591e-01	-3.084702e-02	-3.939913e-01	-1.040402e-03	1.593004e+00	7.954615e-01	7.975423e-01
160           	5.705838e-01	-1.074022e-01	6.779860e-01	3.823691e-01	1.587254e-01	2.236437e-01	-3.245917e-02	-3.926941e-01	-9.173866e-04	1.592653e+00	7.954089e-01	7.972437e-01
161           	5.722343e-01	-1.052633e-01	6.774976e-01	3.894304e-01	1.603333e-01	2.290971e-01	-3.438189e-02	-3.913805e-01	-8.452666e-04	1.591973e+00	7.951414e-01	7.968319e-01
162           	5.741882e-01	-1.030328e-01	6.772210e-01	3.959375e-01	1.614228e-01	2.345147e-01	-3.654596e-02	-3.901269e-01	-8.428022e-04	1.590968e+00	7.946410e-01	7.963266e-01
163           	5.764197e-01	-1.007899e-01	6.772096e-01	4.015291e-01	1.617992e-01	2.397299e-01	-3.896532e-02	-3.889997e-01	-9.163293e-04	1.589674e+00	7.939207e-01	7.957533e-01
164           	5.789071e-01	-9.860986e-02	6.775170e-01	4.058581e-01	1.612839e-01	2.445743e-01	-4.164520e-02	-3.880634e-01	-1.100066e-03	1.588159e+00	7.929792e-01	7.951794e-01
165           	5.815955e-01	-9.658920e-02	6.781847e-01	4.085953e-01	1.597139e-01	2.488813e-01	-4.458370e-02	-3.873870e-01	-1.391473e-03	1.586511e+00	7.918638e-01	7.946467e-01
166           	5.844403e-01	-9.472680e-02	6.791671e-01	4.096982e-01	1.571633e-01	2.525349e-01	-4.768582e-02	-3.869469e-01	-1.822480e-03	1.584677e+00	7.905162e-01	7.941611e-01
167           	5.873994e-01	-9.297394e-02	6.803734e-01	4.093736e-01	1.538142e-01	2.555594e-01	-5.087257e-02	-3.866736e-01	-2.413874e-03	1.582553e+00	7.888624e-01	7.936902e-01