# Solver information
# Time        	U_solver      	Ux_initial    	Ux_final      	Ux_iters      	Uy_initial    	Uy_final      	Uy_iters      	Uz_initial    	Uz_final      	Uz_iters      	U_converged   	k_solver      	k_initial     	k_final       	k_iters       	k_converged   	omega_solver  	omega_initial 	omega_final   	omega_iters   	omega_converged	p_solver      	p_initial     	p_final       	p_iters       	p_converged   
1             	DILUPBiCGStab	6.207190e-02	2.577220e-04	2	8.356130e-02	5.587440e-04	2	2.544480e-01	3.084390e-04	3	false	DILUPBiCGStab	1.000000e+00	2.908900e-03	2	true	DILUPBiCGStab	5.574550e-03	5.452840e-05	2	true	GAMGPCG	2.015810e-01	5.190710e-04	4	true
2             	DILUPBiCGStab	4.625050e-02	2.776540e-04	2	3.854530e-02	1.576430e-04	2	1.475310e-01	5.181220e-04	2	false	DILUPBiCGStab	1.423210e-01	4.172020e-04	2	true	DILUPBiCGStab	1.284760e-03	5.726570e-06	2	true	GAMGPCG	2.471730e-01	8.743630e-04	4	true
3             	DILUPBiCGStab	3.811590e-02	1.546930e-04	2	2.110960e-02	3.177370e-05	3	9.581080e-02	3.925230e-04	2	false	DILUPBiCGStab	6.148680e-02	1.748280e-04	2	true	DILUPBiCGStab	1.507340e-03	5.671750e-06	2	true	GAMGPCG	2.582990e-01	9.258250e-04	4	true
4             	DILUPBiCGStab	3.583320e-02	1.464160e-04	2	1.561190e-02	2.010530e-05	3	6.731730e-02	3.019200e-04	2	false	DILUPBiCGStab	3.691360e-02	9.477550e-05	2	true	DILUPBiCGStab	1.685940e-03	5.615570e-06	2	true	GAMGPCG	1.838870e-01	5.459620e-04	4	true
5             	DILUPBiCGStab	3.563230e-02	1.464810e-04	2	1.620450e-02	8.501970e-05	2	5.510680e-02	2.687600e-04	2	false	DILUPBiCGStab	2.570140e-02	2.451570e-04	2	true	DILUPBiCGStab	1.803540e-03	5.447730e-06	2	true	GAMGPCG	1.537800e-01	1.279390e-03	3	true
6             	DILUPBiCGStab	3.202400e-02	1.362960e-04	2	1.530710e-02	7.291610e-05	2	4.829090e-02	2.057690e-04	2	false	DILUPBiCGStab	1.968130e-02	4.525400e-05	2	true	DILUPBiCGStab	1.938650e-03	5.259570e-06	2	true	GAMGPCG	1.525020e-01	1.495680e-03	3	true
7             	DILUPBiCGStab	2.654890e-02	1.106000e-04	2	1.289170e-02	5.604010e-05	3	4.162530e-02	1.838260e-04	2	false	DILUPBiCGStab	1.585950e-02	1.365830e-04	2	true	DILUPBiCGStab	2.042040e-03	5.123810e-06	2	true	GAMGPCG	1.607000e-01	4.809570e-04	4	true
8             	DILUPBiCGStab	2.209010e-02	9.073390e-05	2	1.024720e-02	4.507600e-05	2	3.510240e-02	1.473480e-04	2	false	DILUPBiCGStab	1.313580e-02	1.112060e-04	2	true	DILUPBiCGStab	2.064940e-03	4.895840e-06	2	true	GAMGPCG	1.714820e-01	5.340750e-04	4	true
9             	DILUPBiCGStab	2.121030e-02	9.313730e-05	2	8.928270e-03	3.860470e-05	2	2.952640e-02	1.167420e-04	2	false	DILUPBiCGStab	1.112730e-02	9.127740e-05	2	true	DILUPBiCGStab	2.032340e-03	4.551420e-06	2	true	GAMGPCG	1.823830e-01	5.484580e-04	4	true
10            	DILUPBiCGStab	2.206600e-02	9.674290e-05	2	9.264730e-03	4.196250e-05	2	2.596120e-02	1.065420e-04	2	false	DILUPBiCGStab	9.599770e-03	7.504720e-05	2	true	DILUPBiCGStab	1.943270e-03	1.882670e-05	2	true	GAMGPCG	1.929440e-01	1.835570e-03	3	true
11            	DILUPBiCGStab	2.225070e-02	9.470800e-05	2	9.582350e-03	4.218000e-05	2	2.335090e-02	9.588890e-05	2	false	DILUPBiCGStab	8.343610e-03	6.614380e-05	2	true	DILUPBiCGStab	1.832770e-03	1.744700e-05	2	true	GAMGPCG	1.998950e-01	1.422770e-03	3	true
12            	DILUPBiCGStab	2.104510e-02	8.732540e-05	2	9.321400e-03	3.911470e-05	2	2.132670e-02	1.490580e-04	2	false	DILUPBiCGStab	7.469750e-03	5.816920e-05	2	true	DILUPBiCGStab	1.732650e-03	1.594400e-05	2	true	GAMGPCG	1.985190e-01	1.671280e-03	3	true
13            	DILUPBiCGStab	1.910730e-02	8.193850e-05	2	8.690520e-03	3.514880e-05	2	1.988270e-02	4.047700e-06	4	false	DILUPBiCGStab	6.794880e-03	5.339500e-05	2	true	DILUPBiCGStab	1.637390e-03	1.515090e-05	2	true	GAMGPCG	1.881720e-01	1.677810e-03	3	true
14            	DILUPBiCGStab	1.722040e-02	1.258490e-04	2	8.134030e-03	3.214580e-05	2	1.873490e-02	1.002380e-04	2	false	DILUPBiCGStab	6.257430e-03	5.921280e-05	2	true	DILUPBiCGStab	1.557500e-03	1.481360e-05	2	true	GAMGPCG	1.755330e-01	1.498540e-03	3	true
15            	DILUPBiCGStab	1.588720e-02	6.923470e-05	2	7.862450e-03	3.114210e-05	2	1.770450e-02	6.783020e-05	2	false	DILUPBiCGStab	5.979160e-03	4.829940e-05	2	true	DILUPBiCGStab	1.492030e-03	1.466370e-05	2	true	GAMGPCG	1.651430e-01	1.240520e-03	3	true
16            	DILUPBiCGStab	1.492890e-02	6.959070e-05	2	7.739910e-03	3.116560e-05	2	1.668040e-02	6.512300e-05	2	false	DILUPBiCGStab	5.851600e-03	2.464270e-06	3	true	DILUPBiCGStab	1.432220e-03	1.424980e-05	2	true	GAMGPCG	1.585100e-01	9.840600e-04	3	true
17            	DILUPBiCGStab	1.427510e-02	9.103470e-05	2	7.552660e-03	3.088890e-05	2	1.554900e-02	1.130160e-04	3	false	DILUPBiCGStab	5.820730e-03	2.350840e-06	3	true	DILUPBiCGStab	1.376180e-03	2.492290e-06	2	true	GAMGPCG	1.554570e-01	1.077360e-03	3	true
18            	DILUPBiCGStab	1.374240e-02	1.047960e-04	2	7.280640e-03	2.968650e-05	2	1.439640e-02	1.382380e-04	2	false	DILUPBiCGStab	5.831490e-03	2.326310e-06	3	true	DILUPBiCGStab	1.331230e-03	1.260410e-05	2	true	GAMGPCG	1.552400e-01	1.166900e-03	3	true
19            	DILUPBiCGStab	1.322150e-02	9.185640e-05	2	7.007160e-03	2.776070e-05	2	1.340600e-02	4.915780e-05	2	false	DILUPBiCGStab	5.823250e-03	3.324310e-05	2	true	DILUPBiCGStab	1.292080e-03	1.233850e-05	2	true	GAMGPCG	1.566050e-01	1.187290e-03	3	true
20            	DILUPBiCGStab	1.275220e-02	5.761390e-05	2	6.804890e-03	2.622320e-05	2	1.267280e-02	1.132880e-04	2	false	DILUPBiCGStab	5.817990e-03	2.249280e-06	3	true	DILUPBiCGStab	1.255530e-03	1.203030e-05	2	true	GAMGPCG	1.579720e-01	1.155740e-03	3	true
21            	DILUPBiCGStab	1.226990e-02	4.960420e-05	2	6.664670e-03	2.552250e-05	2	1.210030e-02	2.681410e-05	3	false	DILUPBiCGStab	5.802340e-03	4.245550e-05	2	true	DILUPBiCGStab	1.229170e-03	1.189440e-05	2	true	GAMGPCG	1.581290e-01	1.075130e-03	3	true
22            	DILUPBiCGStab	1.174500e-02	4.671700e-05	2	6.556140e-03	2.493400e-05	2	1.162890e-02	2.154210e-05	3	false	DILUPBiCGStab	5.787550e-03	3.816180e-05	2	true	DILUPBiCGStab	1.209140e-03	1.138270e-05	2	true	GAMGPCG	1.567240e-01	1.047790e-03	3	true
23            	DILUPBiCGStab	1.117980e-02	4.460820e-05	2	6.459200e-03	2.437730e-05	2	1.117080e-02	8.144520e-05	2	false	DILUPBiCGStab	5.760230e-03	3.121080e-05	2	true	DILUPBiCGStab	1.187810e-03	1.148290e-05	2	true	GAMGPCG	1.539480e-01	1.067220e-03	3	true
24            	DILUPBiCGStab	1.064850e-02	4.304630e-05	2	6.371800e-03	2.379110e-05	2	1.070900e-02	4.440500e-05	2	false	DILUPBiCGStab	5.721480e-03	3.606660e-05	2	true	DILUPBiCGStab	1.163690e-03	1.112950e-05	2	true	GAMGPCG	1.504460e-01	1.048970e-03	3	true
25            	DILUPBiCGStab	1.015420e-02	6.196470e-05	2	6.290420e-03	2.307320e-05	2	1.027450e-02	3.581800e-05	2	false	DILUPBiCGStab	5.658360e-03	3.306350e-05	2	true	DILUPBiCGStab	1.141150e-03	1.082320e-05	2	true	GAMGPCG	1.468980e-01	9.963870e-04	3	true
26            	DILUPBiCGStab	9.684560e-03	9.015990e-05	3	6.214190e-03	2.230740e-05	2	9.872700e-03	3.321470e-05	2	false	DILUPBiCGStab	5.595840e-03	5.075230e-05	2	true	DILUPBiCGStab	1.123170e-03	1.044920e-05	2	true	GAMGPCG	1.435420e-01	9.373410e-04	3	true
27            	DILUPBiCGStab	9.289050e-03	7.482060e-05	2	6.138310e-03	2.139100e-05	2	9.490920e-03	3.136500e-05	2	false	DILUPBiCGStab	5.536270e-03	4.839030e-05	2	true	DILUPBiCGStab	1.106430e-03	1.002700e-05	2	true	GAMGPCG	1.406780e-01	9.038570e-04	3	true
28            	DILUPBiCGStab	8.951420e-03	5.050090e-05	2	6.072970e-03	2.114790e-05	2	9.134180e-03	3.004720e-05	2	false	DILUPBiCGStab	5.466050e-03	2.058210e-06	3	true	DILUPBiCGStab	1.093990e-03	9.847760e-06	2	true	GAMGPCG	1.381680e-01	9.104700e-04	3	true
29            	DILUPBiCGStab	8.632160e-03	4.702560e-05	2	6.026660e-03	3.506930e-05	2	8.809950e-03	2.899760e-05	2	false	DILUPBiCGStab	5.420650e-03	2.065070e-06	3	true	DILUPBiCGStab	1.080960e-03	9.964190e-06	2	true	GAMGPCG	1.360350e-01	9.388410e-04	3	true
30            	DILUPBiCGStab	8.335140e-03	4.768220e-05	2	5.991180e-03	5.625430e-06	3	8.519600e-03	2.797450e-05	2	false	DILUPBiCGStab	5.398000e-03	2.712770e-05	2	true	DILUPBiCGStab	1.068970e-03	9.890300e-06	2	true	GAMGPCG	1.342330e-01	9.716840e-04	3	true
31            	DILUPBiCGStab	8.056910e-03	5.454980e-05	2	5.957440e-03	5.925020e-05	2	8.252610e-03	2.702130e-05	2	false	DILUPBiCGStab	5.366780e-03	3.498390e-05	2	true	DILUPBiCGStab	1.057710e-03	9.969590e-06	2	true	GAMGPCG	1.325080e-01	1.011010e-03	3	true
32            	DILUPBiCGStab	7.780230e-03	1.499350e-05	3	5.918880e-03	3.918740e-05	2	8.008390e-03	2.650720e-05	2	false	DILUPBiCGStab	5.326690e-03	3.611170e-05	2	true	DILUPBiCGStab	1.049670e-03	9.763570e-06	2	true	GAMGPCG	1.306600e-01	1.029550e-03	3	true
33            	DILUPBiCGStab	7.512580e-03	1.769410e-05	3	5.877010e-03	2.634450e-05	2	7.787840e-03	2.470800e-05	2	false	DILUPBiCGStab	5.297660e-03	5.020450e-05	2	true	DILUPBiCGStab	1.044750e-03	9.136480e-06	2	true	GAMGPCG	1.285440e-01	1.021720e-03	3	true
34            	DILUPBiCGStab	7.274720e-03	7.145130e-05	2	5.836460e-03	2.005240e-05	2	7.591890e-03	1.993450e-05	3	false	DILUPBiCGStab	5.270590e-03	1.980850e-06	3	true	DILUPBiCGStab	1.039650e-03	8.790720e-06	2	true	GAMGPCG	1.263830e-01	1.017500e-03	3	true
35            	DILUPBiCGStab	7.061280e-03	2.985450e-05	2	5.801590e-03	1.852900e-05	2	7.411220e-03	1.204990e-05	3	false	DILUPBiCGStab	5.246370e-03	2.091210e-06	3	true	DILUPBiCGStab	1.037290e-03	8.766920e-06	2	true	GAMGPCG	1.241830e-01	1.005780e-03	3	true
36            	DILUPBiCGStab	6.859430e-03	2.480190e-05	2	5.778130e-03	1.817660e-05	2	7.233720e-03	4.931300e-05	2	false	DILUPBiCGStab	5.247510e-03	2.457120e-05	2	true	DILUPBiCGStab	1.035410e-03	8.589450e-06	2	true	GAMGPCG	1.219140e-01	1.024840e-03	3	true
37            	DILUPBiCGStab	6.657870e-03	2.412540e-05	2	5.769240e-03	1.800490e-05	2	7.053520e-03	4.165730e-05	2	false	DILUPBiCGStab	5.233770e-03	2.997370e-05	2	true	DILUPBiCGStab	1.031840e-03	8.499290e-06	2	true	GAMGPCG	1.196770e-01	1.006750e-03	3	true
38            	DILUPBiCGStab	6.462700e-03	2.310780e-05	2	5.765620e-03	1.775550e-05	2	6.874890e-03	4.258280e-05	2	false	DILUPBiCGStab	5.212220e-03	3.736200e-06	3	true	DILUPBiCGStab	1.027740e-03	8.266080e-06	2	true	GAMGPCG	1.174300e-01	9.498050e-04	3	true
39            	DILUPBiCGStab	6.274140e-03	2.202100e-05	2	5.759810e-03	1.732300e-05	2	6.700330e-03	1.175040e-05	3	false	DILUPBiCGStab	5.188210e-03	4.379790e-05	2	true	DILUPBiCGStab	1.022480e-03	8.213750e-06	2	true	GAMGPCG	1.152170e-01	8.624400e-04	3	true
40            	DILUPBiCGStab	6.112550e-03	2.093750e-05	2	5.752410e-03	1.734590e-05	2	6.536040e-03	1.913960e-05	2	false	DILUPBiCGStab	5.156290e-03	3.896030e-05	2	true	DILUPBiCGStab	1.014420e-03	8.188630e-06	2	true	GAMGPCG	1.130130e-01	7.932290e-04	3	true
41            	DILUPBiCGStab	5.970120e-03	2.005420e-05	2	5.743700e-03	2.677370e-05	2	6.384510e-03	1.886220e-05	2	false	DILUPBiCGStab	5.108690e-03	1.793700e-05	2	true	DILUPBiCGStab	1.007180e-03	8.129340e-06	2	true	GAMGPCG	1.108170e-01	7.712170e-04	3	true
42            	DILUPBiCGStab	5.837960e-03	2.028850e-05	2	5.730500e-03	4.850760e-06	3	6.248930e-03	1.839810e-05	2	false	DILUPBiCGStab	5.050800e-03	4.047970e-05	2	true	DILUPBiCGStab	9.997000e-04	8.044260e-06	2	true	GAMGPCG	1.085220e-01	7.823790e-04	3	true
43            	DILUPBiCGStab	5.702370e-03	2.498190e-05	2	5.710810e-03	5.536090e-05	2	6.126350e-03	1.780800e-05	2	false	DILUPBiCGStab	4.995860e-03	3.912210e-05	2	true	DILUPBiCGStab	9.889850e-04	7.979540e-06	2	true	GAMGPCG	1.062030e-01	7.949040e-04	3	true
44            	DILUPBiCGStab	5.558730e-03	3.793540e-05	2	5.686440e-03	5.053990e-05	2	6.010880e-03	1.713710e-05	2	false	DILUPBiCGStab	4.934730e-03	3.784740e-05	2	true	DILUPBiCGStab	9.788840e-04	7.899500e-06	2	true	GAMGPCG	1.038370e-01	7.977990e-04	3	true
45            	DILUPBiCGStab	5.411050e-03	9.010330e-06	3	5.657050e-03	4.403730e-05	2	5.897740e-03	1.653560e-05	2	false	DILUPBiCGStab	4.871970e-03	3.771640e-05	2	true	DILUPBiCGStab	9.683300e-04	7.809650e-06	2	true	GAMGPCG	1.014840e-01	7.860000e-04	3	true
46            	DILUPBiCGStab	5.266630e-03	6.972170e-06	3	5.625220e-03	2.510420e-05	2	5.794440e-03	1.613890e-05	2	false	DILUPBiCGStab	4.811010e-03	3.666250e-05	2	true	DILUPBiCGStab	9.587810e-04	7.687840e-06	2	true	GAMGPCG	9.902980e-02	7.733970e-04	3	true
47            	DILUPBiCGStab	5.130620e-03	6.663730e-06	3	5.594390e-03	1.617630e-05	2	5.702910e-03	1.594750e-05	2	false	DILUPBiCGStab	4.745710e-03	3.591860e-05	2	true	DILUPBiCGStab	9.474910e-04	7.588200e-06	2	true	GAMGPCG	9.657060e-02	7.587010e-04	3	true
48            	DILUPBiCGStab	5.007170e-03	3.641700e-05	2	5.564780e-03	1.590900e-05	2	5.612680e-03	1.574070e-05	2	false	DILUPBiCGStab	4.688330e-03	3.533070e-05	2	true	DILUPBiCGStab	9.369570e-04	7.501720e-06	2	true	GAMGPCG	9.416920e-02	7.315970e-04	3	true
49            	DILUPBiCGStab	4.884680e-03	2.463740e-05	2	5.542100e-03	1.587580e-05	2	5.518160e-03	1.542650e-05	2	false	DILUPBiCGStab	4.641660e-03	3.551110e-05	2	true	DILUPBiCGStab	9.280290e-04	7.419090e-06	2	true	GAMGPCG	9.192110e-02	6.979160e-04	3	true
50            	DILUPBiCGStab	4.762960e-03	1.685780e-05	2	5.523690e-03	1.566030e-05	2	5.420870e-03	1.507360e-05	2	false	DILUPBiCGStab	4.595740e-03	3.429470e-05	2	true	DILUPBiCGStab	9.191450e-04	7.390870e-06	2	true	GAMGPCG	8.982160e-02	6.679400e-04	3	true
51            	DILUPBiCGStab	4.641450e-03	1.451990e-05	2	5.507320e-03	1.559870e-05	2	5.323100e-03	1.463810e-05	2	false	DILUPBiCGStab	4.554130e-03	4.016450e-05	2	true	DILUPBiCGStab	9.110330e-04	7.350100e-06	2	true	GAMGPCG	8.785880e-02	6.404970e-04	3	true
52            	DILUPBiCGStab	4.529230e-03	1.386280e-05	2	5.493490e-03	1.602430e-05	3	5.228840e-03	1.417620e-05	2	false	DILUPBiCGStab	4.513660e-03	7.961500e-06	2	true	DILUPBiCGStab	9.017860e-04	7.358640e-06	2	true	GAMGPCG	8.584940e-02	6.065740e-04	3	true
53            	DILUPBiCGStab	4.430630e-03	1.350660e-05	2	5.480560e-03	3.208180e-05	2	5.141780e-03	1.465580e-05	2	false	DILUPBiCGStab	4.481640e-03	1.768630e-05	2	true	DILUPBiCGStab	8.934850e-04	7.343760e-06	2	true	GAMGPCG	8.383080e-02	5.743490e-04	3	true
54            	DILUPBiCGStab	4.345080e-03	1.330520e-05	2	5.472570e-03	2.106030e-05	2	5.065420e-03	1.689800e-05	2	false	DILUPBiCGStab	4.447720e-03	4.562160e-06	3	true	DILUPBiCGStab	8.855900e-04	7.317810e-06	2	true	GAMGPCG	8.195000e-02	5.544170e-04	3	true
55            	DILUPBiCGStab	4.266010e-03	1.313010e-05	2	5.470230e-03	1.761700e-05	2	5.001040e-03	1.769220e-05	2	false	DILUPBiCGStab	4.412930e-03	1.754030e-05	2	true	DILUPBiCGStab	8.775710e-04	7.189950e-06	2	true	GAMGPCG	8.016820e-02	5.489560e-04	3	true
56            	DILUPBiCGStab	4.189110e-03	1.291960e-05	2	5.474140e-03	1.626980e-05	2	4.943180e-03	1.576210e-05	2	false	DILUPBiCGStab	4.374270e-03	4.202560e-05	2	true	DILUPBiCGStab	8.703310e-04	7.056430e-06	2	true	GAMGPCG	7.853030e-02	5.504730e-04	3	true
57            	DILUPBiCGStab	4.108810e-03	1.262630e-05	2	5.484000e-03	1.530950e-05	2	4.887510e-03	1.323900e-05	2	false	DILUPBiCGStab	4.337880e-03	3.811130e-05	2	true	DILUPBiCGStab	8.635220e-04	6.981360e-06	2	true	GAMGPCG	7.699010e-02	5.498750e-04	3	true
58            	DILUPBiCGStab	4.025950e-03	1.229750e-05	2	5.498550e-03	1.471690e-05	2	4.832550e-03	1.221870e-05	2	false	DILUPBiCGStab	4.305080e-03	4.036030e-05	2	true	DILUPBiCGStab	8.560860e-04	6.897400e-06	2	true	GAMGPCG	7.542460e-02	5.428220e-04	3	true
59            	DILUPBiCGStab	3.944990e-03	1.192500e-05	2	5.515820e-03	1.439520e-05	2	4.780750e-03	1.198190e-05	2	false	DILUPBiCGStab	4.273340e-03	1.366510e-05	2	true	DILUPBiCGStab	8.497010e-04	6.795070e-06	2	true	GAMGPCG	7.386260e-02	5.307370e-04	3	true
60            	DILUPBiCGStab	3.868330e-03	1.156850e-05	2	5.535150e-03	1.425920e-05	2	4.738010e-03	4.718150e-05	2	false	DILUPBiCGStab	4.244950e-03	1.021130e-05	2	true	DILUPBiCGStab	8.433740e-04	6.765890e-06	2	true	GAMGPCG	7.233610e-02	5.184170e-04	3	true
61            	DILUPBiCGStab	3.797700e-03	1.125990e-05	2	5.555660e-03	1.418740e-05	2	4.704020e-03	1.188060e-05	2	false	DILUPBiCGStab	4.217820e-03	7.660310e-06	2	true	DILUPBiCGStab	8.372020e-04	6.703820e-06	2	true	GAMGPCG	7.085190e-02	5.135520e-04	3	true
62            	DILUPBiCGStab	3.730990e-03	1.108980e-05	2	5.577250e-03	1.420490e-05	2	4.670830e-03	1.166580e-05	2	false	DILUPBiCGStab	4.200660e-03	2.977320e-05	2	true	DILUPBiCGStab	8.325720e-04	6.679920e-06	2	true	GAMGPCG	6.942480e-02	5.142300e-04	3	true
63            	DILUPBiCGStab	3.668310e-03	1.140550e-05	2	5.602620e-03	1.424690e-05	2	4.637290e-03	1.155720e-05	2	false	DILUPBiCGStab	4.182800e-03	3.687530e-05	2	true	DILUPBiCGStab	8.285680e-04	6.679400e-06	2	true	GAMGPCG	6.806280e-02	5.146360e-04	3	true
64            	DILUPBiCGStab	3.609430e-03	1.247210e-05	2	5.628650e-03	1.428280e-05	2	4.603720e-03	1.152940e-05	2	false	DILUPBiCGStab	4.169690e-03	1.609380e-06	3	true	DILUPBiCGStab	8.251820e-04	6.628640e-06	2	true	GAMGPCG	6.672560e-02	5.122910e-04	3	true
65            	DILUPBiCGStab	3.554490e-03	1.356250e-05	2	5.655780e-03	1.432440e-05	2	4.575410e-03	1.153550e-05	2	false	DILUPBiCGStab	4.158920e-03	3.254640e-05	2	true	DILUPBiCGStab	8.229740e-04	6.612010e-06	2	true	GAMGPCG	6.545020e-02	5.081420e-04	3	true
66            	DILUPBiCGStab	3.502860e-03	1.706140e-05	2	5.684450e-03	1.441520e-05	2	4.553430e-03	1.153810e-05	2	false	DILUPBiCGStab	4.152940e-03	1.991860e-05	2	true	DILUPBiCGStab	8.209200e-04	6.670350e-06	2	true	GAMGPCG	6.427220e-02	5.047700e-04	3	true
67            	DILUPBiCGStab	3.454300e-03	2.239860e-05	2	5.715380e-03	1.454160e-05	2	4.537650e-03	4.478000e-05	2	false	DILUPBiCGStab	4.143960e-03	2.941930e-05	2	true	DILUPBiCGStab	8.198140e-04	6.668820e-06	2	true	GAMGPCG	6.321570e-02	5.017320e-04	3	true
68            	DILUPBiCGStab	3.409370e-03	2.492030e-05	2	5.749120e-03	1.466110e-05	2	4.527300e-03	4.472170e-05	2	false	DILUPBiCGStab	4.136730e-03	1.405680e-06	3	true	DILUPBiCGStab	8.188970e-04	6.627530e-06	2	true	GAMGPCG	6.222630e-02	4.918730e-04	3	true
69            	DILUPBiCGStab	3.368650e-03	2.307510e-05	2	5.787060e-03	1.463410e-05	2	4.519790e-03	1.100050e-05	2	false	DILUPBiCGStab	4.126300e-03	1.340520e-06	3	true	DILUPBiCGStab	8.191010e-04	6.539560e-06	2	true	GAMGPCG	6.134010e-02	4.748240e-04	3	true
70            	DILUPBiCGStab	3.331450e-03	2.204640e-05	2	5.828100e-03	1.457730e-05	2	4.514220e-03	1.083080e-05	2	false	DILUPBiCGStab	4.111770e-03	3.292260e-05	2	true	DILUPBiCGStab	8.210980e-04	6.567620e-06	2	true	GAMGPCG	6.051900e-02	4.570090e-04	3	true
71            	DILUPBiCGStab	3.297420e-03	1.906710e-05	2	5.870880e-03	1.460930e-05	2	4.513620e-03	1.067660e-05	2	false	DILUPBiCGStab	4.096410e-03	1.358770e-06	3	true	DILUPBiCGStab	8.235480e-04	6.591850e-06	2	true	GAMGPCG	5.971940e-02	4.421070e-04	3	true
72            	DILUPBiCGStab	3.266140e-03	1.222490e-05	2	5.914340e-03	1.468390e-05	2	4.515870e-03	1.057740e-05	2	false	DILUPBiCGStab	4.082180e-03	1.341880e-06	3	true	DILUPBiCGStab	8.259790e-04	6.568180e-06	2	true	GAMGPCG	5.897410e-02	4.313540e-04	3	true
73            	DILUPBiCGStab	3.237540e-03	9.594300e-06	2	5.958320e-03	1.475220e-05	2	4.519600e-03	1.125260e-05	2	false	DILUPBiCGStab	4.063860e-03	1.273080e-05	2	true	DILUPBiCGStab	8.292890e-04	6.589020e-06	2	true	GAMGPCG	5.828650e-02	4.249900e-04	3	true
74            	DILUPBiCGStab	3.210670e-03	9.280040e-06	2	6.003200e-03	1.483050e-05	2	4.524240e-03	1.820730e-05	2	false	DILUPBiCGStab	4.046040e-03	9.530050e-06	2	true	DILUPBiCGStab	8.319160e-04	6.607240e-06	2	true	GAMGPCG	5.761500e-02	4.193460e-04	3	true
75            	DILUPBiCGStab	3.184500e-03	1.000700e-05	2	6.046800e-03	1.489420e-05	2	4.530780e-03	1.065210e-05	2	false	DILUPBiCGStab	4.029260e-03	8.773110e-06	2	true	DILUPBiCGStab	8.355070e-04	6.601750e-06	2	true	GAMGPCG	5.701060e-02	4.135360e-04	3	true
76            	DILUPBiCGStab	3.158540e-03	1.360590e-05	2	6.088980e-03	1.493970e-05	2	4.539830e-03	4.506490e-05	2	false	DILUPBiCGStab	4.011340e-03	7.372770e-06	2	true	DILUPBiCGStab	8.389160e-04	6.636000e-06	2	true	GAMGPCG	5.644960e-02	4.088930e-04	3	true
77            	DILUPBiCGStab	3.132870e-03	2.475560e-05	2	6.129970e-03	1.500640e-05	2	4.554420e-03	4.499990e-05	2	false	DILUPBiCGStab	3.988790e-03	6.445640e-06	2	true	DILUPBiCGStab	8.415460e-04	6.616390e-06	2	true	GAMGPCG	5.589010e-02	4.077160e-04	3	true
78            	DILUPBiCGStab	3.108180e-03	2.082930e-06	3	6.170110e-03	1.506450e-05	2	4.570850e-03	4.508530e-05	2	false	DILUPBiCGStab	3.969700e-03	6.158190e-06	2	true	DILUPBiCGStab	8.431520e-04	6.598190e-06	2	true	GAMGPCG	5.529580e-02	4.114390e-04	3	true
79            	DILUPBiCGStab	3.086480e-03	2.749090e-05	2	6.209820e-03	1.508950e-05	2	4.587100e-03	1.093700e-05	2	false	DILUPBiCGStab	3.949950e-03	6.269450e-06	2	true	DILUPBiCGStab	8.452150e-04	6.600400e-06	2	true	GAMGPCG	5.466030e-02	4.170960e-04	3	true
80            	DILUPBiCGStab	3.067900e-03	1.210820e-05	2	6.248570e-03	1.512580e-05	2	4.600370e-03	1.144260e-05	2	false	DILUPBiCGStab	3.930920e-03	6.780840e-06	2	true	DILUPBiCGStab	8.476560e-04	6.624730e-06	2	true	GAMGPCG	5.401840e-02	4.173570e-04	3	true
81            	DILUPBiCGStab	3.048840e-03	8.979820e-06	2	6.284480e-03	1.520270e-05	2	4.611930e-03	1.852940e-05	3	false	DILUPBiCGStab	3.912190e-03	7.100850e-06	2	true	DILUPBiCGStab	8.477440e-04	6.621440e-06	2	true	GAMGPCG	5.341890e-02	4.100990e-04	3	true
82            	DILUPBiCGStab	3.030900e-03	7.779850e-06	2	6.317990e-03	1.529770e-05	2	4.621890e-03	4.610630e-05	3	false	DILUPBiCGStab	3.890860e-03	7.757670e-06	2	true	DILUPBiCGStab	8.468170e-04	6.635170e-06	2	true	GAMGPCG	5.284630e-02	3.983220e-04	3	true
83            	DILUPBiCGStab	3.014170e-03	7.416820e-06	2	6.350030e-03	1.535660e-05	2	4.628980e-03	2.220680e-05	3	false	DILUPBiCGStab	3.873560e-03	1.043760e-05	2	true	DILUPBiCGStab	8.471180e-04	6.626460e-06	2	true	GAMGPCG	5.224980e-02	3.888390e-04	3	true
84            	DILUPBiCGStab	2.998190e-03	7.311990e-06	2	6.378540e-03	1.534990e-05	2	4.638860e-03	4.755600e-06	3	false	DILUPBiCGStab	3.856640e-03	1.257710e-05	2	true	DILUPBiCGStab	8.458720e-04	6.615170e-06	2	true	GAMGPCG	5.171300e-02	3.813540e-04	3	true
85            	DILUPBiCGStab	2.983290e-03	7.228250e-06	2	6.403270e-03	1.530390e-05	2	4.648580e-03	2.534740e-05	2	false	DILUPBiCGStab	3.839340e-03	1.363800e-05	2	true	DILUPBiCGStab	8.441810e-04	6.571730e-06	2	true	GAMGPCG	5.127960e-02	3.739720e-04	3	true
86            	DILUPBiCGStab	2.969160e-03	7.132280e-06	2	6.422940e-03	1.526390e-05	2	4.658550e-03	1.469960e-05	2	false	DILUPBiCGStab	3.821910e-03	1.457650e-05	2	true	DILUPBiCGStab	8.423170e-04	6.523230e-06	2	true	GAMGPCG	5.087800e-02	3.671200e-04	3	true
87            	DILUPBiCGStab	2.955880e-03	7.080820e-06	2	6.435530e-03	1.525330e-05	2	4.669250e-03	1.162150e-05	2	false	DILUPBiCGStab	3.807060e-03	1.527430e-05	2	true	DILUPBiCGStab	8.400460e-04	6.558140e-06	2	true	GAMGPCG	5.054570e-02	3.635970e-04	3	true
88            	DILUPBiCGStab	2.943070e-03	7.044690e-06	2	6.443090e-03	1.524680e-05	2	4.681290e-03	1.058780e-05	2	false	DILUPBiCGStab	3.792560e-03	1.163820e-05	2	true	DILUPBiCGStab	8.372800e-04	6.577410e-06	2	true	GAMGPCG	5.024290e-02	3.619010e-04	3	true
89            	DILUPBiCGStab	2.930660e-03	6.990920e-06	2	6.445660e-03	1.520750e-05	2	4.695220e-03	1.040020e-05	2	false	DILUPBiCGStab	3.778710e-03	1.063430e-05	2	true	DILUPBiCGStab	8.341780e-04	6.512290e-06	2	true	GAMGPCG	4.997500e-02	3.572480e-04	3	true
90            	DILUPBiCGStab	2.919380e-03	6.939980e-06	2	6.446730e-03	1.513340e-05	2	4.709180e-03	1.046800e-05	2	false	DILUPBiCGStab	3.767200e-03	1.161100e-05	2	true	DILUPBiCGStab	8.309400e-04	6.560270e-06	2	true	GAMGPCG	4.970510e-02	3.527920e-04	3	true
91            	DILUPBiCGStab	2.908710e-03	6.914840e-06	2	6.446630e-03	1.505140e-05	2	4.722950e-03	1.060020e-05	2	false	DILUPBiCGStab	3.757860e-03	1.248560e-05	2	true	DILUPBiCGStab	8.275520e-04	6.721120e-06	2	true	GAMGPCG	4.941490e-02	3.503680e-04	3	true
92            	DILUPBiCGStab	2.898960e-03	6.895410e-06	2	6.445480e-03	1.497770e-05	2	4.736430e-03	1.075410e-05	2	false	DILUPBiCGStab	3.748860e-03	1.506200e-05	2	true	DILUPBiCGStab	8.238620e-04	6.698740e-06	2	true	GAMGPCG	4.910290e-02	3.488350e-04	3	true
93            	DILUPBiCGStab	2.889960e-03	6.853000e-06	2	6.445020e-03	1.492260e-05	2	4.748900e-03	4.689550e-05	2	false	DILUPBiCGStab	3.740350e-03	1.707310e-05	2	true	DILUPBiCGStab	8.211330e-04	6.619680e-06	2	true	GAMGPCG	4.876710e-02	3.469050e-04	3	true
94            	DILUPBiCGStab	2.881540e-03	6.789510e-06	2	6.444360e-03	1.489190e-05	2	4.762620e-03	4.625880e-05	2	false	DILUPBiCGStab	3.735230e-03	1.543850e-05	2	true	DILUPBiCGStab	8.195060e-04	6.657470e-06	2	true	GAMGPCG	4.844870e-02	3.427740e-04	3	true
95            	DILUPBiCGStab	2.873260e-03	6.728150e-06	2	6.444480e-03	6.442880e-05	2	4.776690e-03	4.594600e-05	2	false	DILUPBiCGStab	3.730840e-03	1.526870e-05	2	true	DILUPBiCGStab	8.189040e-04	6.587450e-06	2	true	GAMGPCG	4.808490e-02	3.363210e-04	3	true
96            	DILUPBiCGStab	2.865230e-03	6.702620e-06	2	6.448880e-03	6.389410e-05	2	4.791830e-03	4.586740e-05	2	false	DILUPBiCGStab	3.726340e-03	1.358890e-05	2	true	DILUPBiCGStab	8.191120e-04	6.599170e-06	2	true	GAMGPCG	4.769690e-02	3.287530e-04	3	true
97            	DILUPBiCGStab	2.857760e-03	6.670510e-06	2	6.454210e-03	6.319450e-05	2	4.808570e-03	4.583350e-05	2	false	DILUPBiCGStab	3.720260e-03	1.955500e-05	2	true	DILUPBiCGStab	8.193430e-04	6.595140e-06	2	true	GAMGPCG	4.734450e-02	3.214900e-04	3	true
98            	DILUPBiCGStab	2.851120e-03	6.638910e-06	2	6.461040e-03	6.242770e-05	2	4.826440e-03	4.587700e-05	2	false	DILUPBiCGStab	3.709480e-03	1.842150e-05	2	true	DILUPBiCGStab	8.185830e-04	6.603800e-06	2	true	GAMGPCG	4.703550e-02	3.155200e-04	3	true
99            	DILUPBiCGStab	2.845250e-03	6.627250e-06	2	6.467590e-03	6.188210e-05	2	4.845030e-03	4.600850e-05	2	false	DILUPBiCGStab	3.697420e-03	1.313850e-05	2	true	DILUPBiCGStab	8.183530e-04	6.530060e-06	2	true	GAMGPCG	4.679620e-02	3.121790e-04	3	true
100           	DILUPBiCGStab	2.839930e-03	6.581440e-06	2	6.475800e-03	6.150710e-05	2	4.864520e-03	4.609870e-05	2	false	DILUPBiCGStab	3.684780e-03	1.141200e-05	2	true	DILUPBiCGStab	8.181120e-04	6.486200e-06	2	true	GAMGPCG	4.659280e-02	3.101000e-04	3	true
101           	DILUPBiCGStab	2.836150e-03	6.531010e-06	2	6.486090e-03	6.119980e-05	2	4.885500e-03	4.621290e-05	2	false	DILUPBiCGStab	3.672970e-03	8.472630e-06	2	true	DILUPBiCGStab	8.189690e-04	6.363630e-06	2	true	GAMGPCG	4.641420e-02	3.085980e-04	3	true
102           	DILUPBiCGStab	2.833030e-03	2.830780e-05	2	6.497020e-03	6.099030e-05	2	4.908800e-03	4.633640e-05	2	false	DILUPBiCGStab	3.663080e-03	7.406590e-06	2	true	DILUPBiCGStab	8.205930e-04	6.255200e-06	2	true	GAMGPCG	4.625940e-02	3.067330e-04	3	true
103           	DILUPBiCGStab	2.831150e-03	2.799870e-05	2	6.508880e-03	6.085230e-05	2	4.933160e-03	4.647300e-05	2	false	DILUPBiCGStab	3.651660e-03	6.275330e-06	2	true	DILUPBiCGStab	8.212850e-04	6.180080e-06	2	true	GAMGPCG	4.607190e-02	3.054180e-04	3	true
104           	DILUPBiCGStab	2.829590e-03	2.770230e-05	2	6.521540e-03	6.077350e-05	2	4.960080e-03	4.664360e-05	2	false	DILUPBiCGStab	3.644840e-03	3.628040e-05	2	true	DILUPBiCGStab	8.229980e-04	6.167460e-06	2	true	GAMGPCG	4.586820e-02	3.047970e-04	3	true
105           	DILUPBiCGStab	2.828160e-03	2.744790e-05	2	6.534220e-03	6.073160e-05	2	4.987930e-03	4.695020e-05	2	false	DILUPBiCGStab	3.643480e-03	3.313780e-05	2	true	DILUPBiCGStab	8.256020e-04	6.272090e-06	2	true	GAMGPCG	4.568480e-02	3.041210e-04	3	true
106           	DILUPBiCGStab	2.826460e-03	2.730180e-05	2	6.548060e-03	6.069750e-05	2	5.016650e-03	4.732520e-05	2	false	DILUPBiCGStab	3.644820e-03	3.123880e-05	2	true	DILUPBiCGStab	8.282910e-04	6.216620e-06	2	true	GAMGPCG	4.551370e-02	3.031400e-04	3	true
107           	DILUPBiCGStab	2.824740e-03	2.709220e-05	2	6.562300e-03	6.065520e-05	2	5.047520e-03	4.754010e-05	2	false	DILUPBiCGStab	3.647580e-03	3.053650e-05	2	true	DILUPBiCGStab	8.311640e-04	6.313760e-06	2	true	GAMGPCG	4.540030e-02	3.013950e-04	3	true
108           	DILUPBiCGStab	2.823170e-03	2.686260e-05	2	6.575370e-03	6.062740e-05	2	5.078300e-03	4.748450e-05	2	false	DILUPBiCGStab	3.650130e-03	2.999560e-05	2	true	DILUPBiCGStab	8.331990e-04	6.412490e-06	2	true	GAMGPCG	4.534080e-02	2.991410e-04	3	true
109           	DILUPBiCGStab	2.821930e-03	2.672250e-05	2	6.586240e-03	6.060130e-05	2	5.109120e-03	4.756440e-05	2	false	DILUPBiCGStab	3.652810e-03	2.944630e-05	2	true	DILUPBiCGStab	8.346080e-04	6.609500e-06	2	true	GAMGPCG	4.530870e-02	2.965380e-04	3	true
110           	DILUPBiCGStab	2.820810e-03	2.659030e-05	2	6.595470e-03	6.058310e-05	2	5.141290e-03	4.775840e-05	2	false	DILUPBiCGStab	3.654990e-03	2.875730e-05	2	true	DILUPBiCGStab	8.353370e-04	6.982640e-06	2	true	GAMGPCG	4.521820e-02	2.931650e-04	3	true
111           	DILUPBiCGStab	2.820460e-03	2.644480e-05	2	6.602620e-03	6.055110e-05	2	5.174790e-03	4.792510e-05	2	false	DILUPBiCGStab	3.657030e-03	2.823990e-05	2	true	DILUPBiCGStab	8.368450e-04	7.078580e-06	2	true	GAMGPCG	4.509300e-02	2.895330e-04	3	true
112           	DILUPBiCGStab	2.819710e-03	2.633590e-05	2	6.607070e-03	6.048250e-05	2	5.207540e-03	4.806830e-05	2	false	DILUPBiCGStab	3.657680e-03	2.811820e-05	2	true	DILUPBiCGStab	8.380550e-04	7.164020e-06	2	true	GAMGPCG	4.486940e-02	2.862470e-04	3	true
113           	DILUPBiCGStab	2.819400e-03	2.624740e-05	2	6.608980e-03	6.040230e-05	2	5.240560e-03	4.820830e-05	2	false	DILUPBiCGStab	3.656650e-03	2.819830e-05	2	true	DILUPBiCGStab	8.388350e-04	7.787730e-06	2	true	GAMGPCG	4.461470e-02	2.840320e-04	3	true
114           	DILUPBiCGStab	2.819940e-03	2.615050e-05	2	6.611810e-03	6.039370e-05	2	5.275850e-03	4.834500e-05	2	false	DILUPBiCGStab	3.654780e-03	2.828570e-05	2	true	DILUPBiCGStab	8.396940e-04	7.914480e-06	2	true	GAMGPCG	4.439460e-02	2.827580e-04	3	true
115           	DILUPBiCGStab	2.820620e-03	2.606080e-05	2	6.615270e-03	6.049380e-05	2	5.308540e-03	4.848490e-05	2	false	DILUPBiCGStab	3.655890e-03	2.875700e-05	2	true	DILUPBiCGStab	8.412360e-04	1.440650e-06	2	true	GAMGPCG	4.420510e-02	2.816310e-04	3	true
116           	DILUPBiCGStab	2.821840e-03	2.593200e-05	2	6.621180e-03	6.055660e-05	2	5.341000e-03	4.862740e-05	2	false	DILUPBiCGStab	3.656300e-03	2.991780e-05	2	true	DILUPBiCGStab	8.422130e-04	7.861290e-06	2	true	GAMGPCG	4.405240e-02	2.807170e-04	3	true