# Force and moment coefficients
# dragDir     : (1.000000e+00 0.000000e+00 0.000000e+00)
# sideDir     : (0.000000e+00 1.000000e+00 0.000000e+00)
# liftDir     : (0.000000e+00 0.000000e+00 1.000000e+00)
# rollAxis    : (1.000000e+00 0.000000e+00 0.000000e+00)
# pitchAxis   : (0.000000e+00 1.000000e+00 0.000000e+00)
# yawAxis     : (0.000000e+00 0.000000e+00 1.000000e+00)
# magUInf     : 1.750000e+01
# lRef        : 1.854000e+00
# Aref        : 6.450000e-01
# CofR        : (0.000000e+00 0.000000e+00 1.000000e+00)
#
# Time        	Cd            	Cd(f)         	Cd(r)         	Cl            	Cl(f)         	Cl(r)         	CmPitch       	CmRoll        	CmYaw         	Cs            	Cs(f)         	Cs(r)         
1             	2.479571e-01	1.344729e-01	1.134841e-01	-6.733469e-01	-6.966758e-01	2.332890e-02	-3.600024e-01	1.049438e-02	3.975223e-02	4.935928e-01	2.865486e-01	2.070442e-01
2             	3.871384e-01	4.189964e-01	-3.185797e-02	-4.552276e-01	-6.455952e-01	1.903676e-01	-4.179814e-01	2.254272e-01	6.922348e-02	1.193485e+00	6.659661e-01	5.275192e-01
3             	5.230881e-01	6.853476e-01	-1.622596e-01	-2.354872e-01	-6.032408e-01	3.677536e-01	-4.854972e-01	4.238036e-01	9.527325e-02	1.832712e+00	1.011629e+00	8.210826e-01
4             	5.884456e-01	8.479039e-01	-2.594583e-01	-6.250534e-02	-5.661701e-01	5.036648e-01	-5.349175e-01	5.536811e-01	1.194092e-01	2.238751e+00	1.238785e+00	9.999665e-01
5             	5.578217e-01	8.791175e-01	-3.212958e-01	4.495864e-02	-5.293839e-01	5.743426e-01	-5.518633e-01	6.002067e-01	1.419754e-01	2.362934e+00	1.323442e+00	1.039492e+00
6             	4.490061e-01	8.023430e-01	-3.533369e-01	9.444522e-02	-4.928992e-01	5.873444e-01	-5.401218e-01	5.778400e-01	1.612313e-01	2.254613e+00	1.288538e+00	9.660753e-01
7             	3.062933e-01	6.696475e-01	-3.633543e-01	1.053907e-01	-4.595249e-01	5.649156e-01	-5.122203e-01	5.165009e-01	1.747172e-01	2.016608e+00	1.183021e+00	8.335870e-01
8             	1.786396e-01	5.384556e-01	-3.598160e-01	1.060297e-01	-4.357885e-01	5.418182e-01	-4.888034e-01	4.491358e-01	1.807589e-01	1.759482e+00	1.060500e+00	6.989823e-01
9             	1.019961e-01	4.516497e-01	-3.496537e-01	1.175209e-01	-4.237080e-01	5.412290e-01	-4.824685e-01	4.006517e-01	1.796714e-01	1.565846e+00	9.625944e-01	6.032516e-01
10            	9.011782e-02	4.249012e-01	-3.347834e-01	1.377531e-01	-4.213723e-01	5.591254e-01	-4.902488e-01	3.798423e-01	1.721157e-01	1.472960e+00	9.085955e-01	5.643640e-01
11            	1.331330e-01	4.523301e-01	-3.191972e-01	1.674239e-01	-4.245366e-01	5.919605e-01	-5.082486e-01	3.857637e-01	1.604559e-01	1.476902e+00	8.989068e-01	5.779950e-01
12            	2.066628e-01	5.136328e-01	-3.069700e-01	2.064644e-01	-4.277625e-01	6.342268e-01	-5.309946e-01	4.103014e-01	1.476061e-01	1.546828e+00	9.210201e-01	6.258078e-01
13            	2.833755e-01	5.829474e-01	-2.995719e-01	2.466970e-01	-4.272228e-01	6.739198e-01	-5.505713e-01	4.412597e-01	1.356880e-01	1.641424e+00	9.564000e-01	6.850240e-01
14            	3.420320e-01	6.400928e-01	-2.980608e-01	2.854945e-01	-4.162285e-01	7.017230e-01	-5.589757e-01	4.690768e-01	1.252793e-01	1.725233e+00	9.878958e-01	7.373372e-01
15            	3.717729e-01	6.735259e-01	-3.017529e-01	3.191394e-01	-3.934729e-01	7.126123e-01	-5.530426e-01	4.876394e-01	1.165540e-01	1.776732e+00	1.004920e+00	7.718120e-01
16            	3.729577e-01	6.819996e-01	-3.090419e-01	3.472370e-01	-3.614629e-01	7.087000e-01	-5.350814e-01	4.955208e-01	1.092165e-01	1.790371e+00	1.004402e+00	7.859691e-01
17            	3.542226e-01	6.716213e-01	-3.173986e-01	3.690031e-01	-3.248848e-01	6.938879e-01	-5.093863e-01	4.945100e-01	1.027825e-01	1.773618e+00	9.895913e-01	7.840264e-01
18            	3.277186e-01	6.524168e-01	-3.246982e-01	3.862810e-01	-2.888866e-01	6.751677e-01	-4.820272e-01	4.885575e-01	9.685985e-02	1.740417e+00	9.670683e-01	7.733486e-01
19            	3.042715e-01	6.338700e-01	-3.295985e-01	4.010883e-01	-2.575135e-01	6.586019e-01	-4.580577e-01	4.817342e-01	9.135998e-02	1.705091e+00	9.439054e-01	7.611854e-01
20            	2.911152e-01	6.228017e-01	-3.316865e-01	4.162231e-01	-2.321545e-01	6.483776e-01	-4.402661e-01	4.772441e-01	8.624424e-02	1.678273e+00	9.253805e-01	7.528921e-01
21            	2.904990e-01	6.216487e-01	-3.311497e-01	4.330920e-01	-2.125421e-01	6.456340e-01	-4.290881e-01	4.763992e-01	8.152282e-02	1.664576e+00	9.138110e-01	7.507653e-01
22            	3.004579e-01	6.293483e-01	-3.288904e-01	4.526147e-01	-1.967952e-01	6.494100e-01	-4.231026e-01	4.791194e-01	7.719967e-02	1.663401e+00	9.089004e-01	7.545010e-01
23            	3.164134e-01	6.426609e-01	-3.262475e-01	4.750392e-01	-1.826774e-01	6.577166e-01	-4.201970e-01	4.844542e-01	7.336764e-02	1.670852e+00	9.087935e-01	7.620582e-01
24            	3.333140e-01	6.576528e-01	-3.243388e-01	4.999799e-01	-1.682045e-01	6.681844e-01	-4.181944e-01	4.909958e-01	7.008088e-02	1.681636e+00	9.108990e-01	7.707373e-01
25            	3.473194e-01	6.709812e-01	-3.236618e-01	5.258145e-01	-1.525920e-01	6.784065e-01	-4.154993e-01	4.973215e-01	6.736495e-02	1.691284e+00	9.130069e-01	7.782769e-01
26            	3.564488e-01	6.807751e-01	-3.243263e-01	5.513820e-01	-1.356644e-01	6.870464e-01	-4.113554e-01	5.025507e-01	6.521272e-02	1.697002e+00	9.137138e-01	7.832883e-01
27            	3.606637e-01	6.865952e-01	-3.259315e-01	5.748248e-01	-1.187338e-01	6.935586e-01	-4.061462e-01	5.062633e-01	6.362754e-02	1.698161e+00	9.127080e-01	7.854530e-01
28            	3.614200e-01	6.890624e-01	-3.276424e-01	5.942806e-01	-1.036020e-01	6.978826e-01	-4.007423e-01	5.083524e-01	6.254627e-02	1.695489e+00	9.102910e-01	7.851984e-01
29            	3.606876e-01	6.893530e-01	-3.286653e-01	6.087270e-01	-9.137152e-02	7.000986e-01	-3.957350e-01	5.090092e-01	6.187876e-02	1.690488e+00	9.071228e-01	7.833653e-01
30            	3.600729e-01	6.888583e-01	-3.287855e-01	6.187860e-01	-8.236062e-02	7.011466e-01	-3.917536e-01	5.088219e-01	6.162030e-02	1.684842e+00	9.040415e-01	7.808009e-01
31            	3.607761e-01	6.885241e-01	-3.277480e-01	6.244021e-01	-7.705211e-02	7.014542e-01	-3.892532e-01	5.081360e-01	6.174269e-02	1.679887e+00	9.016861e-01	7.782008e-01
32            	3.632188e-01	6.889973e-01	-3.257786e-01	6.268316e-01	-7.510156e-02	7.019331e-01	-3.885173e-01	5.073880e-01	6.218810e-02	1.676310e+00	9.003433e-01	7.759671e-01
33            	3.671486e-01	6.907429e-01	-3.235943e-01	6.285638e-01	-7.438878e-02	7.029526e-01	-3.886707e-01	5.071686e-01	6.283266e-02	1.674503e+00	9.000839e-01	7.744186e-01
34            	3.718653e-01	6.931950e-01	-3.213296e-01	6.288087e-01	-7.515180e-02	7.039605e-01	-3.895561e-01	5.072623e-01	6.369881e-02	1.674108e+00	9.007529e-01	7.733553e-01
35            	3.767024e-01	6.964901e-01	-3.197877e-01	6.300233e-01	-7.521466e-02	7.052379e-01	-3.902263e-01	5.081389e-01	6.461272e-02	1.675029e+00	9.021274e-01	7.729020e-01
36            	3.810989e-01	7.002309e-01	-3.191320e-01	6.324385e-01	-7.423512e-02	7.066737e-01	-3.904544e-01	5.096814e-01	6.554500e-02	1.676742e+00	9.039162e-01	7.728262e-01
37            	3.847761e-01	7.040960e-01	-3.193200e-01	6.358853e-01	-7.227056e-02	7.081558e-01	-3.902132e-01	5.117080e-01	6.644027e-02	1.678849e+00	9.058649e-01	7.729843e-01
38            	3.877157e-01	7.080295e-01	-3.203138e-01	6.406183e-01	-6.888359e-02	7.095019e-01	-3.891928e-01	5.141716e-01	6.719385e-02	1.681135e+00	9.077611e-01	7.733734e-01
39            	3.901552e-01	7.122234e-01	-3.220682e-01	6.470950e-01	-6.439871e-02	7.114937e-01	-3.879462e-01	5.171458e-01	6.776130e-02	1.683684e+00	9.096035e-01	7.740809e-01
40            	3.923255e-01	7.164661e-01	-3.241406e-01	6.541674e-01	-5.933007e-02	7.134975e-01	-3.864138e-01	5.203033e-01	6.799735e-02	1.686328e+00	9.111612e-01	7.751665e-01
41            	3.944771e-01	7.205813e-01	-3.261042e-01	6.605740e-01	-5.439064e-02	7.149646e-01	-3.846776e-01	5.233428e-01	6.781994e-02	1.689025e+00	9.123325e-01	7.766926e-01
42            	3.969306e-01	7.244502e-01	-3.275196e-01	6.652218e-01	-4.988587e-02	7.151077e-01	-3.824968e-01	5.259849e-01	6.710762e-02	1.691647e+00	9.129311e-01	7.787159e-01
43            	3.998033e-01	7.278175e-01	-3.280142e-01	6.668161e-01	-4.646372e-02	7.132799e-01	-3.798718e-01	5.279158e-01	6.588482e-02	1.694077e+00	9.129232e-01	7.811535e-01
44            	4.030667e-01	7.303719e-01	-3.273052e-01	6.645909e-01	-4.440514e-02	7.089961e-01	-3.767006e-01	5.288386e-01	6.420761e-02	1.695941e+00	9.121782e-01	7.837630e-01
45            	4.066370e-01	7.321127e-01	-3.254758e-01	6.588416e-01	-4.399884e-02	7.028405e-01	-3.734197e-01	5.287942e-01	6.221519e-02	1.697213e+00	9.108218e-01	7.863914e-01
46            	4.104176e-01	7.329707e-01	-3.225531e-01	6.497781e-01	-4.534991e-02	6.951280e-01	-3.702390e-01	5.277619e-01	6.005150e-02	1.697710e+00	9.089063e-01	7.888033e-01
47            	4.143689e-01	7.330931e-01	-3.187242e-01	6.381549e-01	-4.825788e-02	6.864128e-01	-3.673353e-01	5.259086e-01	5.783318e-02	1.697480e+00	9.065733e-01	7.909069e-01
48            	4.184169e-01	7.326711e-01	-3.142542e-01	6.250958e-01	-5.225035e-02	6.773461e-01	-3.647982e-01	5.234626e-01	5.564771e-02	1.696523e+00	9.039093e-01	7.926139e-01
49            	4.225020e-01	7.319182e-01	-3.094161e-01	6.116564e-01	-5.652349e-02	6.681799e-01	-3.623517e-01	5.206671e-01	5.348731e-02	1.694926e+00	9.009504e-01	7.939758e-01
50            	4.266177e-01	7.310398e-01	-3.044221e-01	5.986428e-01	-6.054940e-02	6.591922e-01	-3.598708e-01	5.177309e-01	5.134918e-02	1.692816e+00	8.977572e-01	7.950589e-01
51            	4.307982e-01	7.299466e-01	-2.991484e-01	5.853310e-01	-6.417672e-02	6.495077e-01	-3.568422e-01	5.145475e-01	4.915492e-02	1.690285e+00	8.942975e-01	7.959876e-01
52            	4.350732e-01	7.286162e-01	-2.935431e-01	5.715652e-01	-6.771057e-02	6.392758e-01	-3.534932e-01	5.110796e-01	4.687982e-02	1.687354e+00	8.905570e-01	7.967973e-01
53            	4.395168e-01	7.270376e-01	-2.875208e-01	5.570775e-01	-7.140793e-02	6.284854e-01	-3.499467e-01	5.072792e-01	4.452855e-02	1.684098e+00	8.865775e-01	7.975204e-01
54            	4.441116e-01	7.252655e-01	-2.811539e-01	5.420446e-01	-7.558256e-02	6.176272e-01	-3.466049e-01	5.032097e-01	4.217961e-02	1.680596e+00	8.824778e-01	7.981185e-01
55            	4.488949e-01	7.232449e-01	-2.743501e-01	5.259768e-01	-8.051682e-02	6.064936e-01	-3.435052e-01	4.987975e-01	3.991482e-02	1.676885e+00	8.783573e-01	7.985276e-01
56            	4.538717e-01	7.209601e-01	-2.670884e-01	5.087257e-01	-8.647965e-02	5.952054e-01	-3.408425e-01	4.940243e-01	3.779246e-02	1.672972e+00	8.742783e-01	7.986933e-01
57            	4.589853e-01	7.184536e-01	-2.594683e-01	4.906438e-01	-9.347663e-02	5.841204e-01	-3.387985e-01	4.889609e-01	3.589804e-02	1.668890e+00	8.703432e-01	7.985471e-01
58            	4.641586e-01	7.157702e-01	-2.516117e-01	4.719442e-01	-1.015190e-01	5.734632e-01	-3.374911e-01	4.836909e-01	3.428509e-02	1.664749e+00	8.666598e-01	7.980896e-01
59            	4.693387e-01	7.129930e-01	-2.436543e-01	4.528313e-01	-1.103755e-01	5.632068e-01	-3.367911e-01	4.783236e-01	3.298345e-02	1.660728e+00	8.633476e-01	7.973807e-01
60            	4.744372e-01	7.102459e-01	-2.358088e-01	4.340703e-01	-1.195344e-01	5.536047e-01	-3.365696e-01	4.730274e-01	3.195844e-02	1.656871e+00	8.603941e-01	7.964773e-01
61            	4.794190e-01	7.076997e-01	-2.282808e-01	4.163974e-01	-1.286962e-01	5.450935e-01	-3.368948e-01	4.679903e-01	3.117977e-02	1.653278e+00	8.578188e-01	7.954593e-01
62            	4.842151e-01	7.054518e-01	-2.212367e-01	4.003191e-01	-1.374806e-01	5.377997e-01	-3.376402e-01	4.633442e-01	3.061197e-02	1.649992e+00	8.556081e-01	7.943841e-01
63            	4.887589e-01	7.035681e-01	-2.148092e-01	3.861212e-01	-1.457343e-01	5.318555e-01	-3.387949e-01	4.591887e-01	3.025042e-02	1.647125e+00	8.538129e-01	7.933120e-01
64            	4.930116e-01	7.021296e-01	-2.091180e-01	3.740681e-01	-1.532247e-01	5.272927e-01	-3.402587e-01	4.556238e-01	3.011054e-02	1.644778e+00	8.524993e-01	7.922783e-01
65            	4.969666e-01	7.010887e-01	-2.041222e-01	3.638437e-01	-1.600010e-01	5.238447e-01	-3.419228e-01	4.526055e-01	3.018593e-02	1.642958e+00	8.516648e-01	7.912930e-01
66            	5.005840e-01	7.004909e-01	-1.999070e-01	3.555773e-01	-1.657288e-01	5.213061e-01	-3.435175e-01	4.501990e-01	3.043549e-02	1.641701e+00	8.512861e-01	7.904151e-01
67            	5.039041e-01	7.003390e-01	-1.964349e-01	3.491646e-01	-1.704831e-01	5.196476e-01	-3.450654e-01	4.483869e-01	3.078934e-02	1.640948e+00	8.512634e-01	7.896847e-01
68            	5.070608e-01	7.008106e-01	-1.937498e-01	3.451978e-01	-1.739809e-01	5.191787e-01	-3.465798e-01	4.472802e-01	3.115859e-02	1.640676e+00	8.514968e-01	7.891796e-01
69            	5.101475e-01	7.019431e-01	-1.917956e-01	3.437716e-01	-1.764046e-01	5.201762e-01	-3.482904e-01	4.468694e-01	3.145690e-02	1.640820e+00	8.518670e-01	7.889532e-01
70            	5.132228e-01	7.038093e-01	-1.905864e-01	3.451925e-01	-1.776522e-01	5.228447e-01	-3.502484e-01	4.471978e-01	3.162494e-02	1.641354e+00	8.523018e-01	7.890519e-01
71            	5.163205e-01	7.063467e-01	-1.900261e-01	3.491668e-01	-1.779152e-01	5.270820e-01	-3.524986e-01	4.481864e-01	3.160882e-02	1.642237e+00	8.527271e-01	7.895095e-01
72            	5.194372e-01	7.094934e-01	-1.900563e-01	3.554985e-01	-1.773616e-01	5.328601e-01	-3.551108e-01	4.497749e-01	3.142149e-02	1.643388e+00	8.531154e-01	7.902724e-01
73            	5.226097e-01	7.130754e-01	-1.904656e-01	3.633352e-01	-1.762606e-01	5.395959e-01	-3.579283e-01	4.517705e-01	3.103206e-02	1.644704e+00	8.533840e-01	7.913199e-01
74            	5.257576e-01	7.168335e-01	-1.910759e-01	3.716664e-01	-1.748427e-01	5.465091e-01	-3.606759e-01	4.539547e-01	3.047189e-02	1.646059e+00	8.535014e-01	7.925576e-01
75            	5.288678e-01	7.206938e-01	-1.918259e-01	3.801481e-01	-1.731582e-01	5.533062e-01	-3.632322e-01	4.562598e-01	2.978440e-02	1.647430e+00	8.534996e-01	7.939308e-01
76            	5.319193e-01	7.245644e-01	-1.926451e-01	3.882012e-01	-1.713467e-01	5.595479e-01	-3.654473e-01	4.586047e-01	2.902271e-02	1.648836e+00	8.534406e-01	7.953952e-01
77            	5.348648e-01	7.283369e-01	-1.934721e-01	3.952584e-01	-1.695841e-01	5.648425e-01	-3.672133e-01	4.609045e-01	2.822279e-02	1.650298e+00	8.533720e-01	7.969264e-01
78            	5.377274e-01	7.318525e-01	-1.941251e-01	4.004436e-01	-1.681605e-01	5.686041e-01	-3.683823e-01	4.629888e-01	2.739058e-02	1.651779e+00	8.532799e-01	7.984988e-01
79            	5.405389e-01	7.351256e-01	-1.945867e-01	4.039100e-01	-1.669778e-01	5.708878e-01	-3.689328e-01	4.648562e-01	2.652441e-02	1.653244e+00	8.531466e-01	8.000977e-01
80            	5.432831e-01	7.381049e-01	-1.948218e-01	4.056138e-01	-1.660478e-01	5.716616e-01	-3.688547e-01	4.664633e-01	2.562634e-02	1.654633e+00	8.529429e-01	8.016902e-01
81            	5.459656e-01	7.408732e-01	-1.949076e-01	4.060898e-01	-1.652289e-01	5.713186e-01	-3.682737e-01	4.678904e-01	2.470511e-02	1.655982e+00	8.526962e-01	8.032859e-01
82            	5.485672e-01	7.433852e-01	-1.948180e-01	4.054590e-01	-1.645037e-01	5.699627e-01	-3.672332e-01	4.691016e-01	2.376687e-02	1.657173e+00	8.523535e-01	8.048197e-01
83            	5.511062e-01	7.457550e-01	-1.946489e-01	4.042776e-01	-1.638759e-01	5.681535e-01	-3.660147e-01	4.702019e-01	2.283965e-02	1.658262e+00	8.519706e-01	8.062913e-01
84            	5.535794e-01	7.479586e-01	-1.943792e-01	4.025375e-01	-1.634104e-01	5.659479e-01	-3.646792e-01	4.711689e-01	2.194041e-02	1.659213e+00	8.515467e-01	8.076659e-01
85            	5.559997e-01	7.499953e-01	-1.939956e-01	4.002939e-01	-1.631798e-01	5.634738e-01	-3.633268e-01	4.719954e-01	2.108436e-02	1.660040e+00	8.511042e-01	8.089355e-01
86            	5.583691e-01	7.517915e-01	-1.934225e-01	3.973921e-01	-1.632795e-01	5.606716e-01	-3.619756e-01	4.726070e-01	2.025465e-02	1.660694e+00	8.506016e-01	8.100923e-01
87            	5.607286e-01	7.533397e-01	-1.926110e-01	3.937967e-01	-1.637926e-01	5.575894e-01	-3.606910e-01	4.729754e-01	1.943187e-02	1.661160e+00	8.500117e-01	8.111479e-01
88            	5.631029e-01	7.545615e-01	-1.914586e-01	3.893253e-01	-1.647367e-01	5.540620e-01	-3.593994e-01	4.730101e-01	1.854831e-02	1.661347e+00	8.492220e-01	8.121254e-01
89            	5.654707e-01	7.554856e-01	-1.900149e-01	3.842498e-01	-1.660532e-01	5.503030e-01	-3.581781e-01	4.727503e-01	1.756814e-02	1.661284e+00	8.482103e-01	8.130740e-01
90            	5.677914e-01	7.561269e-01	-1.883356e-01	3.789026e-01	-1.676097e-01	5.465123e-01	-3.570610e-01	4.722312e-01	1.648287e-02	1.660926e+00	8.469457e-01	8.139800e-01
91            	5.700152e-01	7.565217e-01	-1.865065e-01	3.737271e-01	-1.692464e-01	5.429736e-01	-3.561100e-01	4.715141e-01	1.531045e-02	1.660230e+00	8.454254e-01	8.148045e-01
92            	5.720767e-01	7.567201e-01	-1.846434e-01	3.692283e-01	-1.708034e-01	5.400316e-01	-3.554175e-01	4.706818e-01	1.409228e-02	1.659161e+00	8.436728e-01	8.154883e-01
93            	5.738981e-01	7.567270e-01	-1.828289e-01	3.655692e-01	-1.722887e-01	5.378579e-01	-3.550733e-01	4.697780e-01	1.288997e-02	1.657754e+00	8.417670e-01	8.159870e-01
94            	5.754780e-01	7.565493e-01	-1.810714e-01	3.626328e-01	-1.738738e-01	5.365066e-01	-3.551902e-01	4.688103e-01	1.173503e-02	1.656059e+00	8.397644e-01	8.162943e-01
95            	5.768103e-01	7.561766e-01	-1.793663e-01	3.601677e-01	-1.756522e-01	5.358199e-01	-3.557361e-01	4.677715e-01	1.065984e-02	1.654178e+00	8.377487e-01	8.164290e-01
96            	5.779459e-01	7.556168e-01	-1.776708e-01	3.580206e-01	-1.776779e-01	5.356985e-01	-3.566882e-01	4.666438e-01	9.661180e-03	1.652107e+00	8.357149e-01	8.163925e-01
97            	5.789287e-01	7.548716e-01	-1.759429e-01	3.560529e-01	-1.799731e-01	5.360260e-01	-3.579996e-01	4.654072e-01	8.711668e-03	1.649895e+00	8.336591e-01	8.162358e-01
98            	5.798099e-01	7.540008e-01	-1.741910e-01	3.544404e-01	-1.824607e-01	5.369011e-01	-3.596809e-01	4.640959e-01	7.797353e-03	1.647538e+00	8.315664e-01	8.159717e-01
99            	5.806210e-01	7.530799e-01	-1.724589e-01	3.531637e-01	-1.851185e-01	5.382823e-01	-3.617004e-01	4.627694e-01	6.934851e-03	1.645225e+00	8.295472e-01	8.156775e-01
100           	5.813645e-01	7.522399e-01	-1.708754e-01	3.526146e-01	-1.877113e-01	5.403260e-01	-3.640186e-01	4.615576e-01	6.147825e-03	1.643109e+00	8.277021e-01	8.154065e-01
101           	5.820272e-01	7.515904e-01	-1.695632e-01	3.530249e-01	-1.900989e-01	5.431237e-01	-3.666113e-01	4.605768e-01	5.475802e-03	1.641414e+00	8.261827e-01	8.152311e-01
102           	5.826335e-01	7.513013e-01	-1.686678e-01	3.549861e-01	-1.920211e-01	5.470073e-01	-3.695142e-01	4.599846e-01	4.957449e-03	1.640260e+00	8.250877e-01	8.151728e-01
103           	5.831237e-01	7.514202e-01	-1.682964e-01	3.586857e-01	-1.933121e-01	5.519979e-01	-3.726550e-01	4.598583e-01	4.621398e-03	1.639765e+00	8.245039e-01	8.152611e-01
104           	5.835476e-01	7.520247e-01	-1.684771e-01	3.643549e-01	-1.938175e-01	5.581725e-01	-3.759950e-01	4.602509e-01	4.473788e-03	1.639915e+00	8.244312e-01	8.154836e-01
105           	5.838882e-01	7.530928e-01	-1.692046e-01	3.721963e-01	-1.933454e-01	5.655417e-01	-3.794436e-01	4.611487e-01	4.506078e-03	1.640602e+00	8.248073e-01	8.157951e-01
106           	5.842231e-01	7.546218e-01	-1.703986e-01	3.820695e-01	-1.919203e-01	5.739898e-01	-3.829550e-01	4.625102e-01	4.658668e-03	1.641730e+00	8.255235e-01	8.162061e-01
107           	5.845376e-01	7.565669e-01	-1.720293e-01	3.941417e-01	-1.895389e-01	5.836805e-01	-3.866097e-01	4.642981e-01	4.869477e-03	1.643077e+00	8.264079e-01	8.166689e-01
108           	5.848411e-01	7.589030e-01	-1.740619e-01	4.083876e-01	-1.862429e-01	5.946305e-01	-3.904367e-01	4.664824e-01	5.099833e-03	1.644503e+00	8.273511e-01	8.171514e-01
109           	5.850982e-01	7.615093e-01	-1.764111e-01	4.243382e-01	-1.823051e-01	6.066433e-01	-3.944742e-01	4.689602e-01	5.278660e-03	1.645856e+00	8.282067e-01	8.176494e-01
110           	5.853028e-01	7.642925e-01	-1.789897e-01	4.415072e-01	-1.779463e-01	6.194535e-01	-3.986999e-01	4.716411e-01	5.386249e-03	1.647061e+00	8.289165e-01	8.181440e-01
111           	5.854675e-01	7.671341e-01	-1.816666e-01	4.593517e-01	-1.734230e-01	6.327747e-01	-4.030988e-01	4.744004e-01	5.378944e-03	1.647973e+00	8.293655e-01	8.186077e-01
112           	5.856820e-01	7.699301e-01	-1.842481e-01	4.770313e-01	-1.689715e-01	6.460028e-01	-4.074871e-01	4.770891e-01	5.192863e-03	1.648549e+00	8.294672e-01	8.190815e-01
113           	5.860058e-01	7.725770e-01	-1.865711e-01	4.939405e-01	-1.648764e-01	6.588169e-01	-4.118466e-01	4.795740e-01	4.782258e-03	1.648684e+00	8.291242e-01	8.195597e-01
114           	5.865336e-01	7.749707e-01	-1.884371e-01	5.091402e-01	-1.614481e-01	6.705884e-01	-4.160183e-01	4.817039e-01	4.113795e-03	1.648362e+00	8.282949e-01	8.200673e-01
115           	5.872704e-01	7.770450e-01	-1.897746e-01	5.223632e-01	-1.588145e-01	6.811777e-01	-4.199961e-01	4.834098e-01	3.158830e-03	1.647452e+00	8.268848e-01	8.205671e-01
116           	5.882359e-01	7.787441e-01	-1.905082e-01	5.333893e-01	-1.569921e-01	6.903814e-01	-4.236867e-01	4.846262e-01	1.915809e-03	1.645850e+00	8.248408e-01	8.210092e-01
117           	5.893929e-01	7.800341e-01	-1.906412e-01	5.420565e-01	-1.559949e-01	6.980514e-01	-4.270232e-01	4.853377e-01	4.323466e-04	1.643585e+00	8.222250e-01	8.213603e-01
118           	5.906583e-01	7.808823e-01	-1.902240e-01	5.483598e-01	-1.557047e-01	7.040645e-01	-4.298846e-01	4.855532e-01	-1.239544e-03	1.640738e+00	8.191296e-01	8.216087e-01
119           	5.918465e-01	7.812426e-01	-1.893962e-01	5.524551e-01	-1.560401e-01	7.084952e-01	-4.322676e-01	4.853194e-01	-2.992910e-03	1.637437e+00	8.157258e-01	8.217116e-01
120           	5.928054e-01	7.811294e-01	-1.883240e-01	5.547490e-01	-1.568654e-01	7.116144e-01	-4.342399e-01	4.847267e-01	-4.730473e-03	1.633789e+00	8.121641e-01	8.216250e-01
121           	5.933645e-01	7.805670e-01	-1.872024e-01	5.555569e-01	-1.580213e-01	7.135782e-01	-4.357997e-01	4.838847e-01	-6.360810e-03	1.630003e+00	8.086409e-01	8.213625e-01
122           	5.934964e-01	7.795973e-01	-1.861009e-01	5.550701e-01	-1.593976e-01	7.144676e-01	-4.369326e-01	4.828491e-01	-7.830108e-03	1.626140e+00	8.052398e-01	8.209000e-01
123           	5.932307e-01	7.783577e-01	-1.851270e-01	5.534944e-01	-1.608300e-01	7.143245e-01	-4.375772e-01	4.817424e-01	-9.082652e-03	1.622434e+00	8.021342e-01	8.202995e-01
124           	5.926836e-01	7.769502e-01	-1.842666e-01	5.511204e-01	-1.621982e-01	7.133187e-01	-4.377585e-01	4.806084e-01	-1.014548e-02	1.618830e+00	7.992696e-01	8.195605e-01
125           	5.919653e-01	7.754725e-01	-1.835072e-01	5.478060e-01	-1.635593e-01	7.113653e-01	-4.374623e-01	4.794899e-01	-1.099103e-02	1.615495e+00	7.967563e-01	8.187384e-01
126           	5.911273e-01	7.739652e-01	-1.828379e-01	5.436961e-01	-1.648086e-01	7.085047e-01	-4.366567e-01	4.784015e-01	-1.161290e-02	1.612369e+00	7.945718e-01	8.177976e-01
127           	5.901695e-01	7.723748e-01	-1.822053e-01	5.383055e-01	-1.659642e-01	7.042697e-01	-4.351170e-01	4.772900e-01	-1.200268e-02	1.609507e+00	7.927506e-01	8.167560e-01
128           	5.890153e-01	7.705729e-01	-1.815576e-01	5.313996e-01	-1.669074e-01	6.983070e-01	-4.326072e-01	4.760653e-01	-1.217194e-02	1.606733e+00	7.911945e-01	8.155384e-01
129           	5.876721e-01	7.685150e-01	-1.808429e-01	5.225297e-01	-1.676814e-01	6.902111e-01	-4.289462e-01	4.746789e-01	-1.212128e-02	1.604131e+00	7.899442e-01	8.141868e-01
130           	5.861268e-01	7.662087e-01	-1.800819e-01	5.122103e-01	-1.681904e-01	6.804006e-01	-4.242955e-01	4.731453e-01	-1.189364e-02	1.601528e+00	7.888701e-01	8.126574e-01
131           	5.844362e-01	7.637158e-01	-1.792795e-01	5.005540e-01	-1.686151e-01	6.691690e-01	-4.188921e-01	4.714976e-01	-1.150907e-02	1.599065e+00	7.880235e-01	8.110416e-01
132           	5.826839e-01	7.611648e-01	-1.784810e-01	4.883336e-01	-1.689604e-01	6.572940e-01	-4.131272e-01	4.698229e-01	-1.102361e-02	1.596716e+00	7.873343e-01	8.093815e-01
133           	5.810010e-01	7.587236e-01	-1.777226e-01	4.758774e-01	-1.694986e-01	6.453759e-01	-4.074373e-01	4.682231e-01	-1.044643e-02	1.594677e+00	7.868920e-01	8.077848e-01
134           	5.794670e-01	7.564766e-01	-1.770096e-01	4.635921e-01	-1.703998e-01	6.339919e-01	-4.021958e-01	4.667431e-01	-9.811964e-03	1.592965e+00	7.866706e-01	8.062945e-01
135           	5.781309e-01	7.545070e-01	-1.763761e-01	4.517255e-01	-1.716597e-01	6.233852e-01	-3.975225e-01	4.654415e-01	-9.127945e-03	1.591677e+00	7.867106e-01	8.049665e-01
136           	5.769782e-01	7.528759e-01	-1.758977e-01	4.407694e-01	-1.730498e-01	6.138192e-01	-3.934345e-01	4.643868e-01	-8.450127e-03	1.590772e+00	7.869360e-01	8.038363e-01
137           	5.760243e-01	7.516876e-01	-1.756632e-01	4.313573e-01	-1.741158e-01	6.054731e-01	-3.897945e-01	4.636754e-01	-7.825837e-03	1.590225e+00	7.872868e-01	8.029385e-01
138           	5.752171e-01	7.509162e-01	-1.756992e-01	4.237433e-01	-1.744778e-01	5.982211e-01	-3.863495e-01	4.633077e-01	-7.285048e-03	1.589900e+00	7.876650e-01	8.022351e-01
139           	5.745605e-01	7.505232e-01	-1.759627e-01	4.178542e-01	-1.739088e-01	5.917631e-01	-3.828359e-01	4.632429e-01	-6.834175e-03	1.589735e+00	7.880332e-01	8.017016e-01
140           	5.740012e-01	7.503882e-01	-1.763870e-01	4.133533e-01	-1.724525e-01	5.858058e-01	-3.791291e-01	4.633876e-01	-6.456653e-03	1.589616e+00	7.883513e-01	8.012646e-01
141           	5.735271e-01	7.504040e-01	-1.768770e-01	4.096884e-01	-1.702919e-01	5.799803e-01	-3.751361e-01	4.636405e-01	-6.118652e-03	1.589534e+00	7.886485e-01	8.008858e-01
142           	5.730932e-01	7.504961e-01	-1.774029e-01	4.064671e-01	-1.676301e-01	5.740972e-01	-3.708636e-01	4.639495e-01	-5.808317e-03	1.589545e+00	7.889640e-01	8.005806e-01
143           	5.726791e-01	7.505654e-01	-1.778863e-01	4.031744e-01	-1.647984e-01	5.679727e-01	-3.663855e-01	4.642258e-01	-5.504948e-03	1.589646e+00	7.893180e-01	8.003279e-01
144           	5.722250e-01	7.505163e-01	-1.782913e-01	3.995233e-01	-1.620748e-01	5.615981e-01	-3.618364e-01	4.644038e-01	-5.211245e-03	1.589845e+00	7.897113e-01	8.001338e-01
145           	5.717188e-01	7.502924e-01	-1.785736e-01	3.952568e-01	-1.597032e-01	5.549600e-01	-3.573316e-01	4.644330e-01	-4.935186e-03	1.590124e+00	7.901270e-01	7.999974e-01
146           	5.711549e-01	7.498557e-01	-1.787008e-01	3.902629e-01	-1.578048e-01	5.480677e-01	-3.529363e-01	4.642782e-01	-4.688431e-03	1.590492e+00	7.905577e-01	7.999345e-01
147           	5.705294e-01	7.491986e-01	-1.786692e-01	3.846304e-01	-1.564585e-01	5.410890e-01	-3.487738e-01	4.639339e-01	-4.457051e-03	1.590879e+00	7.909826e-01	7.998967e-01
148           	5.698277e-01	7.483701e-01	-1.785424e-01	3.785879e-01	-1.556639e-01	5.342518e-01	-3.449578e-01	4.634563e-01	-4.228442e-03	1.591329e+00	7.914361e-01	7.998930e-01
149           	5.690880e-01	7.474267e-01	-1.783387e-01	3.723982e-01	-1.554023e-01	5.278004e-01	-3.416014e-01	4.628827e-01	-3.984019e-03	1.591759e+00	7.918953e-01	7.998633e-01
150           	5.683429e-01	7.464769e-01	-1.781339e-01	3.665938e-01	-1.555168e-01	5.221106e-01	-3.388137e-01	4.623054e-01	-3.717807e-03	1.592162e+00	7.923630e-01	7.997986e-01
151           	5.676684e-01	7.456041e-01	-1.779357e-01	3.615989e-01	-1.558466e-01	5.174455e-01	-3.366461e-01	4.617699e-01	-3.410489e-03	1.592419e+00	7.927992e-01	7.996202e-01
152           	5.671123e-01	7.449221e-01	-1.778098e-01	3.578145e-01	-1.561795e-01	5.139940e-01	-3.350868e-01	4.613659e-01	-3.073524e-03	1.592582e+00	7.932176e-01	7.993647e-01
153           	5.667400e-01	7.445364e-01	-1.777964e-01	3.554868e-01	-1.563108e-01	5.117975e-01	-3.340542e-01	4.611664e-01	-2.700356e-03	1.592690e+00	7.936448e-01	7.990455e-01
154           	5.665473e-01	7.444626e-01	-1.779153e-01	3.547001e-01	-1.561797e-01	5.108798e-01	-3.335297e-01	4.611889e-01	-2.347571e-03	1.592740e+00	7.940223e-01	7.987174e-01
155           	5.665715e-01	7.447965e-01	-1.782250e-01	3.557449e-01	-1.556075e-01	5.113524e-01	-3.334800e-01	4.615107e-01	-2.016993e-03	1.592799e+00	7.943827e-01	7.984167e-01
156           	5.668384e-01	7.455333e-01	-1.786949e-01	3.584494e-01	-1.546255e-01	5.130749e-01	-3.338502e-01	4.621141e-01	-1.717002e-03	1.592882e+00	7.947238e-01	7.981578e-01
157           	5.673751e-01	7.466948e-01	-1.793197e-01	3.628784e-01	-1.532692e-01	5.161476e-01	-3.347084e-01	4.630072e-01	-1.444733e-03	1.593004e+00	7.950574e-01	7.979468e-01
158           	5.681779e-01	7.481584e-01	-1.799805e-01	3.684849e-01	-1.517910e-01	5.202759e-01	-3.360335e-01	4.640695e-01	-1.221142e-03	1.593083e+00	7.953203e-01	7.977626e-01
159           	5.692405e-01	7.498543e-01	-1.806138e-01	3.752241e-01	-1.502687e-01	5.254928e-01	-3.378807e-01	4.652341e-01	-1.040402e-03	1.593004e+00	7.954615e-01	7.975423e-01
160           	5.705838e-01	7.516337e-01	-1.810499e-01	3.823691e-01	-1.490329e-01	5.314020e-01	-3.402174e-01	4.663418e-01	-9.173866e-04	1.592653e+00	7.954089e-01	7.972437e-01
161           	5.722343e-01	7.534062e-01	-1.811719e-01	3.894304e-01	-1.483152e-01	5.377456e-01	-3.430304e-01	4.672891e-01	-8.452666e-04	1.591973e+00	7.951414e-01	7.968319e-01
162           	5.741882e-01	7.550942e-01	-1.809060e-01	3.959375e-01	-1.482796e-01	5.442171e-01	-3.462483e-01	4.680001e-01	-8.428022e-04	1.590968e+00	7.946410e-01	7.963266e-01
163           	5.764197e-01	7.566395e-01	-1.802198e-01	4.015291e-01	-1.491068e-01	5.506359e-01	-3.498713e-01	4.684296e-01	-9.163293e-04	1.589674e+00	7.939207e-01	7.957533e-01
164           	5.789071e-01	7.580021e-01	-1.790950e-01	4.058581e-01	-1.509638e-01	5.568219e-01	-3.538928e-01	4.685486e-01	-1.100066e-03	1.588159e+00	7.929792e-01	7.951794e-01
165           	5.815955e-01	7.591338e-01	-1.775383e-01	4.085953e-01	-1.539838e-01	5.625790e-01	-3.582814e-01	4.683361e-01	-1.391473e-03	1.586511e+00	7.918638e-01	7.946467e-01
166           	5.844403e-01	7.600074e-01	-1.755672e-01	4.096982e-01	-1.580688e-01	5.677670e-01	-3.629179e-01	4.677873e-01	-1.822480e-03	1.584677e+00	7.905162e-01	7.941611e-01
167           	5.873994e-01	7.606143e-01	-1.732149e-01	4.093736e-01	-1.630139e-01	5.723875e-01	-3.677007e-01	4.669146e-01	-2.413874e-03	1.582553e+00	7.888624e-01	7.936902e-01