# Force and moment coefficients
# dragDir     : (1.000000e+00 0.000000e+00 0.000000e+00)
# sideDir     : (0.000000e+00 1.000000e+00 0.000000e+00)
# liftDir     : (0.000000e+00 0.000000e+00 1.000000e+00)
# rollAxis    : (1.000000e+00 0.000000e+00 0.000000e+00)
# pitchAxis   : (0.000000e+00 1.000000e+00 0.000000e+00)
# yawAxis     : (0.000000e+00 0.000000e+00 1.000000e+00)
# magUInf     : 1.750000e+01
# lRef        : 1.854000e+00
# Aref        : 6.650000e-01
# CofR        : (0.000000e+00 0.000000e+00 0.000000e+00)
#
# Time        	Cd            	Cd(f)         	Cd(r)         	Cl            	Cl(f)         	Cl(r)         	CmPitch       	CmRoll        	CmYaw         	Cs            	Cs(f)         	Cs(r)         
1             	-1.004459e-02	-3.864122e-02	2.859663e-02	-2.098626e-02	-2.232530e-02	1.339041e-03	-1.183217e-02	-3.361893e-02	-8.498834e-02	1.683448e-01	-8.159603e-04	1.691607e-01
2             	-2.220165e-04	-5.486953e-02	5.464751e-02	-2.987406e-02	-2.980767e-02	-6.639632e-05	-1.487063e-02	-5.475852e-02	-1.541774e-01	2.952829e-01	-6.535939e-03	3.018189e-01
3             	9.880171e-03	-6.878300e-02	7.866317e-02	-3.803402e-02	-3.650998e-02	-1.524039e-03	-1.749297e-02	-7.372309e-02	-2.161696e-01	4.081530e-01	-1.209311e-02	4.202461e-01
4             	1.337295e-02	-7.871069e-02	9.208364e-02	-4.330608e-02	-4.125419e-02	-2.051892e-03	-1.960115e-02	-8.539717e-02	-2.525269e-01	4.760376e-01	-1.450809e-02	4.905457e-01
5             	7.601347e-03	-8.475436e-02	9.235571e-02	-4.528760e-02	-4.401802e-02	-1.269579e-03	-2.137422e-02	-8.855503e-02	-2.586727e-01	4.916884e-01	-1.282851e-02	5.045169e-01
6             	-5.561598e-03	-8.759008e-02	8.202849e-02	-4.439627e-02	-4.495768e-02	5.614035e-04	-2.275954e-02	-8.480929e-02	-2.409922e-01	4.660639e-01	-7.960253e-03	4.740242e-01
7             	-2.138851e-02	-8.795596e-02	6.656746e-02	-4.162972e-02	-4.440347e-02	2.773748e-03	-2.358861e-02	-7.726171e-02	-2.113750e-01	4.190242e-01	-1.862893e-03	4.208871e-01
8             	-3.494190e-02	-8.654710e-02	5.160520e-02	-3.804484e-02	-4.271250e-02	4.667661e-03	-2.369008e-02	-6.907615e-02	-1.817464e-01	3.704629e-01	3.485028e-03	3.669779e-01
9             	-4.280921e-02	-8.403390e-02	4.122469e-02	-3.453972e-02	-4.029986e-02	5.760134e-03	-2.303000e-02	-6.262929e-02	-1.606829e-01	3.348934e-01	6.763859e-03	3.281296e-01
10            	-4.386314e-02	-8.096424e-02	3.710110e-02	-3.154607e-02	-3.743690e-02	5.890824e-03	-2.166386e-02	-5.903267e-02	-1.519143e-01	3.188989e-01	7.535169e-03	3.113638e-01
11            	-3.913192e-02	-7.777695e-02	3.864503e-02	-2.922598e-02	-3.443281e-02	5.206834e-03	-1.981982e-02	-5.821099e-02	-1.544101e-01	3.211158e-01	6.147843e-03	3.149680e-01
12            	-3.117375e-02	-7.484583e-02	4.367208e-02	-2.729993e-02	-3.136967e-02	4.069748e-03	-1.771971e-02	-5.925895e-02	-1.642129e-01	3.354082e-01	3.491198e-03	3.319170e-01
13            	-2.288051e-02	-7.244481e-02	4.956430e-02	-2.544784e-02	-2.833817e-02	2.890330e-03	-1.561425e-02	-6.100456e-02	-1.764835e-01	3.541005e-01	5.667467e-04	3.535338e-01
14            	-1.635435e-02	-7.065569e-02	5.430133e-02	-2.342847e-02	-2.539246e-02	1.963988e-03	-1.367822e-02	-6.247851e-02	-1.874164e-01	3.710783e-01	-1.877270e-03	3.729556e-01
15            	-1.272235e-02	-6.942423e-02	5.670188e-02	-2.106687e-02	-2.251685e-02	1.449981e-03	-1.198341e-02	-6.306306e-02	-1.946413e-01	3.824534e-01	-3.414546e-03	3.858680e-01
16            	-1.193007e-02	-6.859363e-02	5.666356e-02	-1.840309e-02	-1.974185e-02	1.338759e-03	-1.054031e-02	-6.262859e-02	-1.976697e-01	3.873217e-01	-4.008828e-03	3.913305e-01
17            	-1.314866e-02	-6.795178e-02	5.480312e-02	-1.558706e-02	-1.709937e-02	1.512304e-03	-9.305837e-03	-6.137745e-02	-1.972708e-01	3.867683e-01	-3.886626e-03	3.906550e-01
18            	-1.525840e-02	-6.730911e-02	5.205072e-02	-1.276756e-02	-1.457920e-02	1.811640e-03	-8.195420e-03	-5.967991e-02	-1.949003e-01	3.830404e-01	-3.380100e-03	3.864205e-01
19            	-1.714810e-02	-6.654554e-02	4.939744e-02	-1.020905e-02	-1.228797e-02	2.078919e-03	-7.183442e-03	-5.797149e-02	-1.921181e-01	3.785631e-01	-2.836576e-03	3.813997e-01
20            	-1.813103e-02	-6.556865e-02	4.743763e-02	-7.890314e-03	-1.010723e-02	2.216917e-03	-6.162074e-03	-5.650314e-02	-1.900603e-01	3.751468e-01	-2.486850e-03	3.776337e-01
21            	-1.793950e-02	-6.439907e-02	4.645957e-02	-5.871938e-03	-8.059880e-03	2.187942e-03	-5.123911e-03	-5.542932e-02	-1.892906e-01	3.736889e-01	-2.446207e-03	3.761351e-01
22            	-1.675301e-02	-6.309730e-02	4.634429e-02	-4.048585e-03	-6.066185e-03	2.017600e-03	-4.041893e-03	-5.472080e-02	-1.898018e-01	3.742134e-01	-2.695105e-03	3.769085e-01
23            	-1.493490e-02	-6.174396e-02	4.680906e-02	-2.345121e-03	-4.102583e-03	1.757462e-03	-2.930023e-03	-5.427651e-02	-1.912458e-01	3.761802e-01	-3.155712e-03	3.793359e-01
24            	-1.295461e-02	-6.043483e-02	4.748022e-02	-6.937451e-04	-2.168040e-03	1.474295e-03	-1.821168e-03	-5.395753e-02	-1.930839e-01	3.787534e-01	-3.707169e-03	3.824605e-01
25            	-1.121646e-02	-5.925491e-02	4.803845e-02	9.376480e-04	-2.879504e-04	1.225598e-03	-7.567744e-04	-5.364668e-02	-1.948212e-01	3.811717e-01	-4.235343e-03	3.854071e-01
26            	-9.948773e-03	-5.825536e-02	4.830659e-02	2.521799e-03	1.478073e-03	1.043725e-03	2.171742e-04	-5.328097e-02	-1.961220e-01	3.829061e-01	-4.668921e-03	3.875750e-01
27            	-9.209731e-03	-5.745015e-02	4.824042e-02	4.009476e-03	3.072569e-03	9.369069e-04	1.067831e-03	-5.284529e-02	-1.968337e-01	3.837108e-01	-4.978238e-03	3.886891e-01
28            	-8.928380e-03	-5.680369e-02	4.787531e-02	5.404241e-03	4.508965e-03	8.952757e-04	1.806845e-03	-5.233950e-02	-1.969619e-01	3.835879e-01	-5.167984e-03	3.887559e-01
29            	-8.953230e-03	-5.627219e-02	4.731896e-02	6.676727e-03	5.779386e-03	8.973406e-04	2.441023e-03	-5.179558e-02	-1.966107e-01	3.826870e-01	-5.267162e-03	3.879542e-01
30            	-9.130330e-03	-5.582351e-02	4.669318e-02	7.778489e-03	6.857262e-03	9.212272e-04	2.968017e-03	-5.125834e-02	-1.959057e-01	3.811937e-01	-5.308878e-03	3.865025e-01
31            	-9.329144e-03	-5.541454e-02	4.608540e-02	8.736821e-03	7.788645e-03	9.481758e-04	3.420235e-03	-5.074997e-02	-1.950096e-01	3.793727e-01	-5.323285e-03	3.846960e-01
32            	-9.486269e-03	-5.500359e-02	4.551733e-02	9.642342e-03	8.673322e-03	9.690190e-04	3.852152e-03	-5.026046e-02	-1.940383e-01	3.774276e-01	-5.324526e-03	3.827521e-01
33            	-9.555372e-03	-5.458966e-02	4.503429e-02	1.045347e-02	9.476277e-03	9.771909e-04	4.249543e-03	-4.981198e-02	-1.930480e-01	3.754345e-01	-5.330795e-03	3.807653e-01
34            	-9.495783e-03	-5.417908e-02	4.468330e-02	1.111388e-02	1.014691e-02	9.669739e-04	4.589966e-03	-4.943119e-02	-1.921219e-01	3.735213e-01	-5.361290e-03	3.788826e-01
35            	-9.312696e-03	-5.379407e-02	4.448138e-02	1.155803e-02	1.061885e-02	9.391789e-04	4.839835e-03	-4.913773e-02	-1.912727e-01	3.716943e-01	-5.425598e-03	3.771199e-01
36            	-9.003825e-03	-5.344083e-02	4.443700e-02	1.176876e-02	1.087502e-02	8.937447e-04	4.990636e-03	-4.893891e-02	-1.905538e-01	3.700424e-01	-5.532640e-03	3.755750e-01
37            	-8.635145e-03	-5.313927e-02	4.450412e-02	1.176399e-02	1.092407e-02	8.399221e-04	5.042072e-03	-4.882170e-02	-1.899433e-01	3.685487e-01	-5.668978e-03	3.742177e-01
38            	-8.279034e-03	-5.289015e-02	4.461112e-02	1.162073e-02	1.083269e-02	7.880364e-04	5.022327e-03	-4.875064e-02	-1.893879e-01	3.671468e-01	-5.814536e-03	3.729613e-01
39            	-7.997934e-03	-5.268026e-02	4.468233e-02	1.144465e-02	1.069776e-02	7.468840e-04	4.975439e-03	-4.868130e-02	-1.888261e-01	3.657560e-01	-5.948080e-03	3.717041e-01
40            	-7.781252e-03	-5.247419e-02	4.469294e-02	1.132325e-02	1.060834e-02	7.149107e-04	4.946715e-03	-4.858356e-02	-1.882580e-01	3.643747e-01	-6.070686e-03	3.704454e-01
41            	-7.594376e-03	-5.223958e-02	4.464521e-02	1.131043e-02	1.062319e-02	6.872466e-04	4.967969e-03	-4.844240e-02	-1.876976e-01	3.630162e-01	-6.189472e-03	3.692057e-01
42            	-7.390663e-03	-5.194632e-02	4.455565e-02	1.145297e-02	1.079572e-02	6.572482e-04	5.069236e-03	-4.825099e-02	-1.871893e-01	3.617516e-01	-6.313547e-03	3.680651e-01
43            	-7.118586e-03	-5.156614e-02	4.444756e-02	1.180122e-02	1.118373e-02	6.174928e-04	5.283119e-03	-4.800685e-02	-1.868084e-01	3.607098e-01	-6.453509e-03	3.671633e-01
44            	-6.730643e-03	-5.108613e-02	4.435549e-02	1.236363e-02	1.180255e-02	5.610884e-04	5.620729e-03	-4.772081e-02	-1.866248e-01	3.600110e-01	-6.619330e-03	3.666303e-01
45            	-6.179956e-03	-5.052342e-02	4.434346e-02	1.304848e-02	1.256685e-02	4.816237e-04	6.042615e-03	-4.743344e-02	-1.866858e-01	3.597235e-01	-6.824079e-03	3.665476e-01
46            	-5.498007e-03	-4.993469e-02	4.443668e-02	1.374322e-02	1.335963e-02	3.835957e-04	6.488015e-03	-4.718569e-02	-1.869779e-01	3.598446e-01	-7.055615e-03	3.669002e-01
47            	-4.719467e-03	-4.936554e-02	4.464608e-02	1.434167e-02	1.406992e-02	2.717455e-04	6.899089e-03	-4.700581e-02	-1.874355e-01	3.602619e-01	-7.304499e-03	3.675664e-01
48            	-3.908546e-03	-4.884946e-02	4.494091e-02	1.480871e-02	1.465324e-02	1.554674e-04	7.248888e-03	-4.689518e-02	-1.879805e-01	3.608577e-01	-7.551671e-03	3.684093e-01
49            	-3.113896e-03	-4.840591e-02	4.529202e-02	1.513138e-02	1.508985e-02	4.153105e-05	7.524159e-03	-4.684897e-02	-1.885481e-01	3.615292e-01	-7.783480e-03	3.693127e-01
50            	-2.388751e-03	-4.804500e-02	4.565625e-02	1.533741e-02	1.539975e-02	-6.233718e-05	7.731044e-03	-4.685063e-02	-1.890894e-01	3.622117e-01	-7.983544e-03	3.701952e-01
51            	-1.769567e-03	-4.776681e-02	4.599724e-02	1.546714e-02	1.561822e-02	-1.510763e-04	7.884647e-03	-4.688202e-02	-1.895737e-01	3.628685e-01	-8.139390e-03	3.710079e-01
52            	-1.248177e-03	-4.754758e-02	4.629940e-02	1.556249e-02	1.578837e-02	-2.258784e-04	8.007122e-03	-4.692349e-02	-1.899840e-01	3.634626e-01	-8.252742e-03	3.717153e-01
53            	-7.986370e-04	-4.735796e-02	4.655932e-02	1.566126e-02	1.595168e-02	-2.904211e-04	8.121051e-03	-4.695864e-02	-1.903188e-01	3.639758e-01	-8.330840e-03	3.723067e-01
54            	-3.787467e-04	-4.717699e-02	4.679824e-02	1.576788e-02	1.611843e-02	-3.505434e-04	8.234485e-03	-4.698762e-02	-1.906025e-01	3.644297e-01	-8.387671e-03	3.728174e-01
55            	5.109940e-05	-4.699375e-02	4.704485e-02	1.586661e-02	1.627840e-02	-4.117928e-04	8.345096e-03	-4.701930e-02	-1.908652e-01	3.648568e-01	-8.436815e-03	3.732937e-01
56            	5.188803e-04	-4.680502e-02	4.732390e-02	1.592916e-02	1.640725e-02	-4.780932e-04	8.442674e-03	-4.706446e-02	-1.911217e-01	3.652655e-01	-8.488950e-03	3.737545e-01
57            	1.054020e-03	-4.660633e-02	4.766035e-02	1.591800e-02	1.647170e-02	-5.536967e-04	8.512696e-03	-4.713334e-02	-1.913709e-01	3.656278e-01	-8.557048e-03	3.741848e-01
58            	1.668131e-03	-4.639489e-02	4.806302e-02	1.580589e-02	1.644630e-02	-6.404177e-04	8.543361e-03	-4.722895e-02	-1.915906e-01	3.658824e-01	-8.649434e-03	3.745318e-01
59            	2.357803e-03	-4.616699e-02	4.852480e-02	1.558645e-02	1.632442e-02	-7.379640e-04	8.531191e-03	-4.734589e-02	-1.917497e-01	3.659607e-01	-8.769314e-03	3.747300e-01
60            	3.119068e-03	-4.591591e-02	4.903498e-02	1.526698e-02	1.611292e-02	-8.459401e-04	8.479431e-03	-4.747544e-02	-1.918276e-01	3.658160e-01	-8.919652e-03	3.747356e-01
61            	3.937746e-03	-4.562920e-02	4.956695e-02	1.488622e-02	1.584877e-02	-9.625458e-04	8.405658e-03	-4.759808e-02	-1.917961e-01	3.653934e-01	-9.099410e-03	3.744928e-01
62            	4.821113e-03	-4.529617e-02	5.011728e-02	1.444832e-02	1.553719e-02	-1.088866e-03	8.313028e-03	-4.770672e-02	-1.916310e-01	3.646326e-01	-9.314718e-03	3.739473e-01
63            	5.764564e-03	-4.492021e-02	5.068477e-02	1.394930e-02	1.517354e-02	-1.224245e-03	8.198894e-03	-4.780249e-02	-1.913224e-01	3.635140e-01	-9.565348e-03	3.730794e-01
64            	6.769435e-03	-4.450812e-02	5.127755e-02	1.336920e-02	1.473797e-02	-1.368765e-03	8.053365e-03	-4.789284e-02	-1.908643e-01	3.620243e-01	-9.852151e-03	3.718765e-01
65            	7.825568e-03	-4.406505e-02	5.189062e-02	1.271711e-02	1.423786e-02	-1.520751e-03	7.879304e-03	-4.797784e-02	-1.902602e-01	3.601803e-01	-1.017001e-02	3.703503e-01
66            	8.914070e-03	-4.360706e-02	5.252113e-02	1.198758e-02	1.366501e-02	-1.677432e-03	7.671221e-03	-4.806410e-02	-1.895197e-01	3.580195e-01	-1.051000e-02	3.685295e-01
67            	1.002422e-02	-4.314197e-02	5.316619e-02	1.119856e-02	1.303575e-02	-1.837191e-03	7.436471e-03	-4.815408e-02	-1.886730e-01	3.556153e-01	-1.086540e-02	3.664807e-01
68            	1.113237e-02	-4.268597e-02	5.381834e-02	1.036090e-02	1.235745e-02	-1.996555e-03	7.177005e-03	-4.825216e-02	-1.877508e-01	3.530532e-01	-1.122425e-02	3.642775e-01
69            	1.221994e-02	-4.225179e-02	5.447172e-02	9.490520e-03	1.164334e-02	-2.152821e-03	6.898081e-03	-4.836176e-02	-1.867936e-01	3.504335e-01	-1.157681e-02	3.620104e-01
70            	1.326426e-02	-4.185009e-02	5.511435e-02	8.611995e-03	1.091464e-02	-2.302647e-03	6.608644e-03	-4.848222e-02	-1.858395e-01	3.478546e-01	-1.191220e-02	3.597668e-01
71            	1.424148e-02	-4.148520e-02	5.572667e-02	7.760969e-03	1.020353e-02	-2.442563e-03	6.323047e-03	-4.860593e-02	-1.849174e-01	3.453948e-01	-1.222004e-02	3.576148e-01
72            	1.513143e-02	-4.116144e-02	5.629287e-02	6.959892e-03	9.529492e-03	-2.569600e-03	6.049546e-03	-4.872715e-02	-1.840452e-01	3.431058e-01	-1.249235e-02	3.555981e-01
73            	1.591457e-02	-4.088584e-02	5.680041e-02	6.223362e-03	8.904331e-03	-2.680970e-03	5.792651e-03	-4.884313e-02	-1.832371e-01	3.410275e-01	-1.272329e-02	3.537508e-01
74            	1.658134e-02	-4.065023e-02	5.723157e-02	5.571659e-03	8.347100e-03	-2.775441e-03	5.561270e-03	-4.894090e-02	-1.824723e-01	3.391218e-01	-1.291145e-02	3.520332e-01
75            	1.713806e-02	-4.044579e-02	5.758385e-02	5.018336e-03	7.872427e-03	-2.854091e-03	5.363259e-03	-4.901482e-02	-1.817470e-01	3.373717e-01	-1.306111e-02	3.504328e-01
76            	1.759871e-02	-4.026188e-02	5.786059e-02	4.566993e-03	7.486144e-03	-2.919151e-03	5.202648e-03	-4.906124e-02	-1.810474e-01	3.357372e-01	-1.317882e-02	3.489160e-01
77            	1.799423e-02	-4.008367e-02	5.807790e-02	4.206310e-03	7.181529e-03	-2.975220e-03	5.078375e-03	-4.908079e-02	-1.803596e-01	3.341671e-01	-1.327606e-02	3.474431e-01
78            	1.834868e-02	-3.990381e-02	5.825249e-02	3.935979e-03	6.961538e-03	-3.025559e-03	4.993548e-03	-4.907815e-02	-1.797030e-01	3.326858e-01	-1.336011e-02	3.460459e-01
79            	1.869648e-02	-3.971776e-02	5.841424e-02	3.739551e-03	6.814382e-03	-3.074831e-03	4.944607e-03	-4.906600e-02	-1.791088e-01	3.313383e-01	-1.343968e-02	3.447780e-01
80            	1.905229e-02	-3.951420e-02	5.856649e-02	3.626600e-03	6.751735e-03	-3.125135e-03	4.938435e-03	-4.904034e-02	-1.785786e-01	3.301215e-01	-1.351789e-02	3.436394e-01
81            	1.943307e-02	-3.928579e-02	5.871887e-02	3.592424e-03	6.771323e-03	-3.178899e-03	4.975111e-03	-4.900233e-02	-1.781218e-01	3.290473e-01	-1.359811e-02	3.426454e-01
82            	1.984809e-02	-3.903737e-02	5.888546e-02	3.623498e-03	6.860867e-03	-3.237370e-03	5.049118e-03	-4.896142e-02	-1.777629e-01	3.281639e-01	-1.368095e-02	3.418449e-01
83            	2.029051e-02	-3.877862e-02	5.906913e-02	3.709281e-03	7.008906e-03	-3.299625e-03	5.154266e-03	-4.892388e-02	-1.775123e-01	3.274959e-01	-1.376430e-02	3.412602e-01
84            	2.074246e-02	-3.850587e-02	5.924833e-02	3.876129e-03	7.239323e-03	-3.363194e-03	5.301258e-03	-4.887710e-02	-1.773656e-01	3.270445e-01	-1.384337e-02	3.408879e-01
85            	2.119366e-02	-3.821139e-02	5.940505e-02	4.147072e-03	7.573719e-03	-3.426647e-03	5.500183e-03	-4.880822e-02	-1.773148e-01	3.268021e-01	-1.391380e-02	3.407159e-01
86            	2.164525e-02	-3.789018e-02	5.953544e-02	4.529877e-03	8.020126e-03	-3.490249e-03	5.755187e-03	-4.871281e-02	-1.773608e-01	3.267701e-01	-1.397571e-02	3.407458e-01
87            	2.209548e-02	-3.754473e-02	5.964021e-02	5.017721e-03	8.571563e-03	-3.553842e-03	6.062702e-03	-4.859247e-02	-1.775013e-01	3.269433e-01	-1.402966e-02	3.409729e-01
88            	2.253262e-02	-3.718891e-02	5.972153e-02	5.579440e-03	9.195203e-03	-3.615763e-03	6.405483e-03	-4.845522e-02	-1.777218e-01	3.272945e-01	-1.407453e-02	3.413691e-01
89            	2.296144e-02	-3.682844e-02	5.978989e-02	6.170104e-03	9.846739e-03	-3.676635e-03	6.761687e-03	-4.830917e-02	-1.779933e-01	3.277566e-01	-1.411502e-02	3.418716e-01
90            	2.338787e-02	-3.647068e-02	5.985855e-02	6.749377e-03	1.048660e-02	-3.737223e-03	7.111911e-03	-4.816461e-02	-1.782943e-01	3.282775e-01	-1.415552e-02	3.424330e-01
91            	2.382028e-02	-3.611146e-02	5.993174e-02	7.298590e-03	1.109738e-02	-3.798791e-03	7.448086e-03	-4.802160e-02	-1.785943e-01	3.287849e-01	-1.420179e-02	3.429867e-01
92            	2.424559e-02	-3.575395e-02	5.999954e-02	7.814149e-03	1.167370e-02	-3.859550e-03	7.766624e-03	-4.787675e-02	-1.788638e-01	3.292237e-01	-1.425201e-02	3.434757e-01
93            	2.464206e-02	-3.539965e-02	6.004171e-02	8.301434e-03	1.221787e-02	-3.916439e-03	8.067156e-03	-4.772068e-02	-1.790634e-01	3.295248e-01	-1.430094e-02	3.438258e-01
94            	2.499833e-02	-3.504723e-02	6.004556e-02	8.765982e-03	1.273373e-02	-3.967751e-03	8.350742e-03	-4.754640e-02	-1.791672e-01	3.296413e-01	-1.434652e-02	3.439879e-01
95            	2.529968e-02	-3.470177e-02	6.000144e-02	9.211118e-03	1.322260e-02	-4.011479e-03	8.617038e-03	-4.735161e-02	-1.791615e-01	3.295532e-01	-1.438492e-02	3.439382e-01
96            	2.552867e-02	-3.437377e-02	5.990244e-02	9.636895e-03	1.368208e-02	-4.045182e-03	8.863630e-03	-4.713810e-02	-1.790454e-01	3.292714e-01	-1.440967e-02	3.436811e-01
97            	2.566849e-02	-3.407259e-02	5.974108e-02	1.004555e-02	1.411214e-02	-4.066596e-03	9.089369e-03	-4.690683e-02	-1.788187e-01	3.288094e-01	-1.441401e-02	3.432234e-01
98            	2.570025e-02	-3.381284e-02	5.951309e-02	1.043064e-02	1.450334e-02	-4.072698e-03	9.288018e-03	-4.666297e-02	-1.784830e-01	3.281857e-01	-1.439013e-02	3.425759e-01
99            	2.563087e-02	-3.360164e-02	5.923252e-02	1.077260e-02	1.483694e-02	-4.064336e-03	9.450637e-03	-4.641708e-02	-1.780510e-01	3.274246e-01	-1.433873e-02	3.417633e-01
100           	2.547198e-02	-3.344385e-02	5.891583e-02	1.105127e-02	1.509436e-02	-4.043088e-03	9.568724e-03	-4.617984e-02	-1.775357e-01	3.265463e-01	-1.426261e-02	3.408089e-01
101           	2.522223e-02	-3.334319e-02	5.856542e-02	1.126244e-02	1.527119e-02	-4.008750e-03	9.639969e-03	-4.595431e-02	-1.769428e-01	3.255637e-01	-1.416099e-02	3.397247e-01
102           	2.489835e-02	-3.330196e-02	5.820031e-02	1.139254e-02	1.535632e-02	-3.963777e-03	9.660049e-03	-4.575113e-02	-1.762955e-01	3.245118e-01	-1.403962e-02	3.385514e-01
103           	2.452068e-02	-3.331454e-02	5.783523e-02	1.143739e-02	1.534832e-02	-3.910931e-03	9.629627e-03	-4.557489e-02	-1.756114e-01	3.234131e-01	-1.390485e-02	3.373179e-01
104           	2.412376e-02	-3.336465e-02	5.748841e-02	1.140184e-02	1.525689e-02	-3.855045e-03	9.555966e-03	-4.542653e-02	-1.749075e-01	3.222791e-01	-1.376795e-02	3.360470e-01
105           	2.374677e-02	-3.343142e-02	5.717819e-02	1.129463e-02	1.509623e-02	-3.801597e-03	9.448914e-03	-4.530481e-02	-1.742009e-01	3.211170e-01	-1.364236e-02	3.347594e-01
106           	2.342375e-02	-3.349466e-02	5.691841e-02	1.113446e-02	1.488988e-02	-3.755428e-03	9.322656e-03	-4.520654e-02	-1.735095e-01	3.199407e-01	-1.353913e-02	3.334798e-01
107           	2.317957e-02	-3.353782e-02	5.671739e-02	1.093770e-02	1.465777e-02	-3.720065e-03	9.188916e-03	-4.512760e-02	-1.728445e-01	3.187581e-01	-1.346547e-02	3.322236e-01
108           	2.304065e-02	-3.354395e-02	5.658460e-02	1.071876e-02	1.441813e-02	-3.699377e-03	9.058754e-03	-4.506428e-02	-1.722173e-01	3.175766e-01	-1.342895e-02	3.310056e-01
109           	2.302102e-02	-3.349986e-02	5.652088e-02	1.049680e-02	1.419222e-02	-3.695421e-03	8.943821e-03	-4.501037e-02	-1.716332e-01	3.164003e-01	-1.343303e-02	3.298334e-01
110           	2.311660e-02	-3.339776e-02	5.651436e-02	1.029718e-02	1.400491e-02	-3.707731e-03	8.856320e-03	-4.495606e-02	-1.710894e-01	3.152246e-01	-1.347709e-02	3.287017e-01
111           	2.330850e-02	-3.323840e-02	5.654690e-02	1.014319e-02	1.387692e-02	-3.733728e-03	8.805324e-03	-4.489265e-02	-1.705827e-01	3.140552e-01	-1.355516e-02	3.276103e-01
112           	2.356808e-02	-3.303475e-02	5.660284e-02	1.003935e-02	1.380868e-02	-3.769325e-03	8.789002e-03	-4.481879e-02	-1.701124e-01	3.129103e-01	-1.365723e-02	3.265675e-01
113           	2.386892e-02	-3.279945e-02	5.666837e-02	9.988438e-03	1.379935e-02	-3.810911e-03	8.805131e-03	-4.473391e-02	-1.696783e-01	3.118093e-01	-1.377364e-02	3.255829e-01
114           	2.418633e-02	-3.254480e-02	5.673114e-02	9.991951e-03	1.384672e-02	-3.854767e-03	8.850742e-03	-4.463797e-02	-1.692804e-01	3.107732e-01	-1.389385e-02	3.246670e-01
115           	2.449951e-02	-3.228417e-02	5.678368e-02	1.004463e-02	1.394250e-02	-3.897873e-03	8.920186e-03	-4.453392e-02	-1.689221e-01	3.098271e-01	-1.400856e-02	3.238356e-01
116           	2.479000e-02	-3.203010e-02	5.682010e-02	1.014372e-02	1.408131e-02	-3.937584e-03	9.009445e-03	-4.442510e-02	-1.686102e-01	3.090016e-01	-1.410937e-02	3.231110e-01
117           	2.503924e-02	-3.179462e-02	5.683386e-02	1.028301e-02	1.425443e-02	-3.971413e-03	9.112920e-03	-4.431424e-02	-1.683441e-01	3.083087e-01	-1.418969e-02	3.224984e-01
118           	2.523987e-02	-3.158201e-02	5.682188e-02	1.045766e-02	1.445584e-02	-3.998184e-03	9.227013e-03	-4.420194e-02	-1.681175e-01	3.077405e-01	-1.424728e-02	3.219878e-01
119           	2.539490e-02	-3.139335e-02	5.678825e-02	1.065454e-02	1.467298e-02	-4.018441e-03	9.345711e-03	-4.409080e-02	-1.679213e-01	3.072735e-01	-1.428458e-02	3.215581e-01
120           	2.549630e-02	-3.122922e-02	5.672552e-02	1.087930e-02	1.491038e-02	-4.031078e-03	9.470728e-03	-4.397737e-02	-1.677482e-01	3.068956e-01	-1.430036e-02	3.211959e-01
121           	2.555298e-02	-3.108270e-02	5.663567e-02	1.112771e-02	1.516516e-02	-4.037453e-03	9.601306e-03	-4.385919e-02	-1.675835e-01	3.065668e-01	-1.430009e-02	3.208669e-01
122           	2.557248e-02	-3.094363e-02	5.651611e-02	1.141123e-02	1.544986e-02	-4.038630e-03	9.744247e-03	-4.372987e-02	-1.674225e-01	3.062683e-01	-1.428834e-02	3.205566e-01
123           	2.556533e-02	-3.080232e-02	5.636765e-02	1.173867e-02	1.577469e-02	-4.036016e-03	9.905352e-03	-4.358499e-02	-1.672638e-01	3.059876e-01	-1.426998e-02	3.202576e-01
124           	2.554545e-02	-3.065002e-02	5.619547e-02	1.211447e-02	1.614595e-02	-4.031480e-03	1.008871e-02	-4.342274e-02	-1.671129e-01	3.057254e-01	-1.425024e-02	3.199757e-01
125           	2.552556e-02	-3.048243e-02	5.600799e-02	1.253716e-02	1.656395e-02	-4.026790e-03	1.029537e-02	-4.324521e-02	-1.669760e-01	3.054850e-01	-1.423347e-02	3.197185e-01
126           	2.551472e-02	-3.029876e-02	5.581348e-02	1.299896e-02	1.702211e-02	-4.023148e-03	1.052263e-02	-4.305612e-02	-1.668613e-01	3.052775e-01	-1.422253e-02	3.195000e-01
127           	2.551882e-02	-3.010197e-02	5.562079e-02	1.348648e-02	1.750781e-02	-4.021330e-03	1.076457e-02	-4.286138e-02	-1.667737e-01	3.051109e-01	-1.421826e-02	3.193291e-01
128           	2.553746e-02	-2.989835e-02	5.543581e-02	1.398574e-02	1.800701e-02	-4.021267e-03	1.101414e-02	-4.266708e-02	-1.667204e-01	3.049994e-01	-1.422074e-02	3.192202e-01
129           	2.557488e-02	-2.968634e-02	5.526121e-02	1.449070e-02	1.851436e-02	-4.023654e-03	1.126901e-02	-4.247377e-02	-1.666975e-01	3.049327e-01	-1.423118e-02	3.191639e-01
130           	2.564055e-02	-2.946265e-02	5.510320e-02	1.499224e-02	1.902219e-02	-4.029948e-03	1.152607e-02	-4.228293e-02	-1.666996e-01	3.048936e-01	-1.425284e-02	3.191464e-01
131           	2.573454e-02	-2.922919e-02	5.496373e-02	1.547624e-02	1.951655e-02	-4.040315e-03	1.177843e-02	-4.209646e-02	-1.667180e-01	3.048613e-01	-1.428735e-02	3.191487e-01
132           	2.586468e-02	-2.898454e-02	5.484922e-02	1.592803e-02	1.998420e-02	-4.056176e-03	1.202019e-02	-4.191688e-02	-1.667448e-01	3.048156e-01	-1.433700e-02	3.191526e-01
133           	2.602265e-02	-2.873266e-02	5.475531e-02	1.634105e-02	2.041745e-02	-4.076398e-03	1.224692e-02	-4.174398e-02	-1.667724e-01	3.047466e-01	-1.439913e-02	3.191457e-01
134           	2.621591e-02	-2.846489e-02	5.468080e-02	1.672271e-02	2.082468e-02	-4.101968e-03	1.246332e-02	-4.157284e-02	-1.667944e-01	3.046410e-01	-1.447393e-02	3.191149e-01
135           	2.644975e-02	-2.817715e-02	5.462690e-02	1.707374e-02	2.120739e-02	-4.133649e-03	1.267052e-02	-4.140202e-02	-1.668080e-01	3.044947e-01	-1.456065e-02	3.190554e-01
136           	2.672955e-02	-2.786938e-02	5.459893e-02	1.739706e-02	2.156930e-02	-4.172244e-03	1.287077e-02	-4.123415e-02	-1.668210e-01	3.043267e-01	-1.465769e-02	3.189844e-01
137           	2.704196e-02	-2.756002e-02	5.460199e-02	1.768213e-02	2.189811e-02	-4.215981e-03	1.305705e-02	-4.108101e-02	-1.668475e-01	3.041766e-01	-1.475921e-02	3.189358e-01
138           	2.735661e-02	-2.727738e-02	5.463399e-02	1.790856e-02	2.216905e-02	-4.260487e-03	1.321477e-02	-4.095568e-02	-1.668910e-01	3.040724e-01	-1.485481e-02	3.189272e-01
139           	2.765541e-02	-2.703941e-02	5.469483e-02	1.806143e-02	2.236430e-02	-4.302871e-03	1.333359e-02	-4.086712e-02	-1.669589e-01	3.040405e-01	-1.493867e-02	3.189792e-01
140           	2.792166e-02	-2.685670e-02	5.477837e-02	1.813147e-02	2.247208e-02	-4.340611e-03	1.340634e-02	-4.081754e-02	-1.670471e-01	3.040819e-01	-1.500617e-02	3.190881e-01
141           	2.814523e-02	-2.673978e-02	5.488501e-02	1.809946e-02	2.247165e-02	-4.372191e-03	1.342192e-02	-4.081239e-02	-1.671530e-01	3.041942e-01	-1.505589e-02	3.192501e-01
142           	2.830334e-02	-2.670309e-02	5.500642e-02	1.795102e-02	2.234522e-02	-4.394200e-03	1.336971e-02	-4.085476e-02	-1.672660e-01	3.043675e-01	-1.508228e-02	3.194498e-01
143           	2.838273e-02	-2.675251e-02	5.513523e-02	1.768227e-02	2.208687e-02	-4.404601e-03	1.324574e-02	-4.094387e-02	-1.673751e-01	3.045853e-01	-1.508242e-02	3.196677e-01
144           	2.837660e-02	-2.688935e-02	5.526595e-02	1.729364e-02	2.169587e-02	-4.402232e-03	1.304905e-02	-4.107765e-02	-1.674728e-01	3.048327e-01	-1.505647e-02	3.198892e-01
145           	2.826692e-02	-2.711092e-02	5.537784e-02	1.680833e-02	2.119288e-02	-4.384555e-03	1.278872e-02	-4.124438e-02	-1.675412e-01	3.050808e-01	-1.500082e-02	3.200816e-01
146           	2.804357e-02	-2.740794e-02	5.545150e-02	1.624794e-02	2.059817e-02	-4.350228e-03	1.247420e-02	-4.142972e-02	-1.675581e-01	3.052891e-01	-1.491349e-02	3.202026e-01
147           	2.771017e-02	-2.776359e-02	5.547376e-02	1.564243e-02	1.994258e-02	-4.300154e-03	1.212137e-02	-4.161867e-02	-1.675109e-01	3.054290e-01	-1.479634e-02	3.202254e-01
148           	2.727513e-02	-2.816321e-02	5.543833e-02	1.501453e-02	1.925023e-02	-4.235704e-03	1.174297e-02	-4.180077e-02	-1.673936e-01	3.054831e-01	-1.465204e-02	3.201352e-01
149           	2.673945e-02	-2.859735e-02	5.533680e-02	1.438291e-02	1.854005e-02	-4.157140e-03	1.134859e-02	-4.196707e-02	-1.671973e-01	3.054329e-01	-1.448083e-02	3.199137e-01
150           	2.612931e-02	-2.905480e-02	5.518411e-02	1.374638e-02	1.781426e-02	-4.067882e-03	1.094107e-02	-4.211945e-02	-1.669315e-01	3.052834e-01	-1.428974e-02	3.195732e-01
151           	2.546351e-02	-2.952910e-02	5.499261e-02	1.309997e-02	1.707058e-02	-3.970612e-03	1.052060e-02	-4.226086e-02	-1.666040e-01	3.050410e-01	-1.408345e-02	3.191245e-01
152           	2.477620e-02	-3.000131e-02	5.477751e-02	1.246153e-02	1.633196e-02	-3.870425e-03	1.010119e-02	-4.238941e-02	-1.662366e-01	3.047298e-01	-1.387165e-02	3.186015e-01
153           	2.407927e-02	-3.047018e-02	5.454944e-02	1.183004e-02	1.559902e-02	-3.768981e-03	9.684000e-03	-4.250981e-02	-1.658389e-01	3.043628e-01	-1.365745e-02	3.180203e-01
154           	2.338484e-02	-3.092783e-02	5.431267e-02	1.121978e-02	1.488768e-02	-3.667901e-03	9.277792e-03	-4.262025e-02	-1.654199e-01	3.039503e-01	-1.344472e-02	3.173950e-01
155           	2.270595e-02	-3.136529e-02	5.407124e-02	1.064728e-02	1.421650e-02	-3.569217e-03	8.892858e-03	-4.271827e-02	-1.649900e-01	3.035047e-01	-1.323767e-02	3.167424e-01
156           	2.205605e-02	-3.177101e-02	5.382706e-02	1.012789e-02	1.360261e-02	-3.474721e-03	8.538665e-03	-4.279904e-02	-1.645515e-01	3.030199e-01	-1.304159e-02	3.160615e-01
157           	2.144285e-02	-3.213790e-02	5.358074e-02	9.675995e-03	1.306154e-02	-3.385547e-03	8.223544e-03	-4.285932e-02	-1.641079e-01	3.024969e-01	-1.285950e-02	3.153564e-01
158           	2.087859e-02	-3.245949e-02	5.333808e-02	9.290915e-03	1.259426e-02	-3.303340e-03	7.948798e-03	-4.289879e-02	-1.636593e-01	3.019273e-01	-1.269561e-02	3.146229e-01
159           	2.036428e-02	-3.273883e-02	5.310311e-02	8.957192e-03	1.218531e-02	-3.228116e-03	7.706712e-03	-4.292097e-02	-1.631976e-01	3.012954e-01	-1.254991e-02	3.138453e-01
160           	1.990000e-02	-3.298115e-02	5.288115e-02	8.658744e-03	1.181876e-02	-3.160021e-03	7.489392e-03	-4.293115e-02	-1.627228e-01	3.006010e-01	-1.242233e-02	3.130233e-01
161           	1.949435e-02	-3.318639e-02	5.268074e-02	8.383469e-03	1.148365e-02	-3.100176e-03	7.291911e-03	-4.293357e-02	-1.622397e-01	2.998485e-01	-1.231548e-02	3.121640e-01
162           	1.916094e-02	-3.335419e-02	5.251513e-02	8.115069e-03	1.116552e-02	-3.050448e-03	7.107982e-03	-4.293466e-02	-1.617582e-01	2.990492e-01	-1.223363e-02	3.112828e-01
163           	1.890255e-02	-3.348354e-02	5.238609e-02	7.853012e-03	1.086436e-02	-3.011351e-03	6.937857e-03	-4.293482e-02	-1.612820e-01	2.982094e-01	-1.217731e-02	3.103868e-01
164           	1.871918e-02	-3.357121e-02	5.229039e-02	7.607028e-03	1.058991e-02	-2.982878e-03	6.786392e-03	-4.293080e-02	-1.608161e-01	2.973395e-01	-1.214639e-02	3.094859e-01
165           	1.860764e-02	-3.361775e-02	5.222539e-02	7.380373e-03	1.034500e-02	-2.964626e-03	6.654813e-03	-4.292157e-02	-1.603649e-01	2.964491e-01	-1.214033e-02	3.085894e-01