# Force and moment coefficients
# dragDir     : (1.000000e+00 0.000000e+00 0.000000e+00)
# sideDir     : (0.000000e+00 1.000000e+00 0.000000e+00)
# liftDir     : (0.000000e+00 0.000000e+00 1.000000e+00)
# rollAxis    : (1.000000e+00 0.000000e+00 0.000000e+00)
# pitchAxis   : (0.000000e+00 1.000000e+00 0.000000e+00)
# yawAxis     : (0.000000e+00 0.000000e+00 1.000000e+00)
# magUInf     : 1.750000e+01
# lRef        : 1.854000e+00
# Aref        : 6.650000e-01
# CofR        : (0.000000e+00 0.000000e+00 0.000000e+00)
#
# Time        	Cd            	Cd(f)         	Cd(r)         	Cl            	Cl(f)         	Cl(r)         	CmPitch       	CmRoll        	CmYaw         	Cs            	Cs(f)         	Cs(r)         
1             	1.556155e-02	-1.664610e-02	3.220765e-02	1.542636e-02	2.292287e-03	1.313407e-02	-5.420893e-03	-2.442687e-02	9.228312e-02	1.952347e-01	1.899005e-01	5.334202e-03
2             	4.111893e-02	-2.236040e-02	6.347933e-02	1.035794e-02	5.934063e-03	4.423881e-03	7.550911e-04	-4.291987e-02	1.386575e-01	3.074003e-01	2.923577e-01	1.504260e-02
3             	6.497169e-02	-2.688653e-02	9.185822e-02	5.602951e-03	9.341435e-03	-3.738484e-03	6.539960e-03	-5.937237e-02	1.790561e-01	4.063277e-01	3.822200e-01	2.410774e-02
4             	7.651692e-02	-3.096576e-02	1.074827e-01	3.548704e-03	1.100913e-02	-7.460426e-03	9.234778e-03	-6.922422e-02	2.050282e-01	4.674820e-01	4.387692e-01	2.871282e-02
5             	7.312333e-02	-3.508945e-02	1.082128e-01	4.307852e-03	1.056019e-02	-6.252334e-03	8.406260e-03	-7.165111e-02	2.149180e-01	4.858617e-01	4.578488e-01	2.801288e-02
6             	5.793600e-02	-3.916950e-02	9.710550e-02	7.296016e-03	8.435735e-03	-1.139719e-03	4.787727e-03	-6.813750e-02	2.117738e-01	4.699206e-01	4.467341e-01	2.318654e-02
7             	3.754528e-02	-4.256615e-02	8.011143e-02	1.129585e-02	5.568640e-03	5.727211e-03	-7.928564e-05	-6.133879e-02	2.005773e-01	4.342448e-01	4.176997e-01	1.654511e-02
8             	1.891697e-02	-4.453155e-02	6.344851e-02	1.498784e-02	2.948384e-03	1.203945e-02	-4.545534e-03	-5.399003e-02	1.863551e-01	3.935824e-01	3.831463e-01	1.043614e-02
9             	6.790722e-03	-4.473594e-02	5.152666e-02	1.741039e-02	1.246643e-03	1.616375e-02	-7.458553e-03	-4.813130e-02	1.731697e-01	3.591650e-01	3.527521e-01	6.412801e-03
10            	2.824455e-03	-4.330788e-02	4.613233e-02	1.830992e-02	6.986108e-04	1.761131e-02	-8.456352e-03	-4.472010e-02	1.634880e-01	3.369852e-01	3.319806e-01	5.004577e-03
11            	6.021415e-03	-4.081947e-02	4.684088e-02	1.761823e-02	1.162341e-03	1.645589e-02	-7.646773e-03	-4.383017e-02	1.578358e-01	3.274877e-01	3.215797e-01	5.908059e-03
12            	1.348329e-02	-3.787606e-02	5.135935e-02	1.642193e-02	2.225455e-03	1.419647e-02	-5.985509e-03	-4.461770e-02	1.557407e-01	3.278992e-01	3.196903e-01	8.208907e-03
13            	2.229242e-02	-3.508480e-02	5.737722e-02	1.520762e-02	3.474900e-03	1.173272e-02	-4.128911e-03	-4.623101e-02	1.559178e-01	3.338615e-01	3.228486e-01	1.101294e-02
14            	3.005995e-02	-3.282747e-02	6.288742e-02	1.440707e-02	4.574434e-03	9.832636e-03	-2.629101e-03	-4.785744e-02	1.569207e-01	3.410074e-01	3.274244e-01	1.358301e-02
15            	3.545533e-02	-3.125333e-02	6.670867e-02	1.413884e-02	5.337674e-03	8.801162e-03	-1.731744e-03	-4.898100e-02	1.576053e-01	3.462168e-01	3.307137e-01	1.550312e-02
16            	3.820356e-02	-3.025845e-02	6.846201e-02	1.440921e-02	5.725708e-03	8.683507e-03	-1.478900e-03	-4.936023e-02	1.572554e-01	3.478417e-01	3.311762e-01	1.666548e-02
17            	3.881240e-02	-2.960807e-02	6.842047e-02	1.511086e-02	5.810446e-03	9.300413e-03	-1.744983e-03	-4.901427e-02	1.556649e-01	3.457028e-01	3.285163e-01	1.718651e-02
18            	3.816981e-02	-2.907546e-02	6.724528e-02	1.601214e-02	5.718896e-03	1.029324e-02	-2.287173e-03	-4.816037e-02	1.530727e-01	3.407334e-01	3.234394e-01	1.729398e-02
19            	3.720252e-02	-2.847988e-02	6.568240e-02	1.684616e-02	5.583026e-03	1.126314e-02	-2.840056e-03	-4.708114e-02	1.498608e-01	3.341944e-01	3.169580e-01	1.723638e-02
20            	3.660312e-02	-2.772379e-02	6.432691e-02	1.742602e-02	5.500385e-03	1.192563e-02	-3.212623e-03	-4.602535e-02	1.464427e-01	3.272994e-01	3.100924e-01	1.720704e-02
21            	3.672222e-02	-2.678341e-02	6.350563e-02	1.771347e-02	5.520279e-03	1.219319e-02	-3.336455e-03	-4.514452e-02	1.431774e-01	3.209715e-01	3.036631e-01	1.730835e-02
22            	3.757396e-02	-2.573612e-02	6.331008e-02	1.770810e-02	5.644539e-03	1.206356e-02	-3.209511e-03	-4.452310e-02	1.403573e-01	3.158157e-01	2.982652e-01	1.755051e-02
23            	3.894589e-02	-2.467889e-02	6.362478e-02	1.752587e-02	5.842538e-03	1.168333e-02	-2.920397e-03	-4.415183e-02	1.381737e-01	3.121151e-01	2.942312e-01	1.788385e-02
24            	4.047446e-02	-2.373425e-02	6.420871e-02	1.731165e-02	6.062368e-03	1.124928e-02	-2.593456e-03	-4.397148e-02	1.367207e-01	3.098742e-01	2.916578e-01	1.821636e-02
25            	4.183418e-02	-2.299486e-02	6.482904e-02	1.714615e-02	6.257783e-03	1.088837e-02	-2.315292e-03	-4.391195e-02	1.359416e-01	3.088270e-01	2.903551e-01	1.847190e-02
26            	4.277306e-02	-2.247670e-02	6.524976e-02	1.718047e-02	6.393165e-03	1.078731e-02	-2.197071e-03	-4.386323e-02	1.356900e-01	3.085683e-01	2.899741e-01	1.859414e-02
27            	4.326160e-02	-2.215262e-02	6.541422e-02	1.738889e-02	6.464603e-03	1.092429e-02	-2.229842e-03	-4.378342e-02	1.357649e-01	3.087178e-01	2.901238e-01	1.859394e-02
28            	4.327423e-02	-2.195773e-02	6.523196e-02	1.787253e-02	6.468391e-03	1.140414e-02	-2.467874e-03	-4.359485e-02	1.360011e-01	3.089485e-01	2.904754e-01	1.847311e-02
29            	4.294795e-02	-2.185168e-02	6.479963e-02	1.847687e-02	6.423915e-03	1.205296e-02	-2.814521e-03	-4.332566e-02	1.362401e-01	3.090414e-01	2.907608e-01	1.828054e-02
30            	4.232488e-02	-2.177197e-02	6.409685e-02	1.927207e-02	6.336970e-03	1.293510e-02	-3.299064e-03	-4.293441e-02	1.363955e-01	3.088430e-01	2.908169e-01	1.802601e-02
31            	4.154838e-02	-2.169592e-02	6.324430e-02	2.013304e-02	6.227840e-03	1.390520e-02	-3.838680e-03	-4.247011e-02	1.364290e-01	3.083590e-01	2.906084e-01	1.775052e-02
32            	4.068377e-02	-2.158593e-02	6.226970e-02	2.108929e-02	6.105741e-03	1.498355e-02	-4.438904e-03	-4.192781e-02	1.363288e-01	3.075918e-01	2.901247e-01	1.746711e-02
33            	3.978386e-02	-2.145997e-02	6.124383e-02	2.206406e-02	5.977959e-03	1.608610e-02	-5.054072e-03	-4.135190e-02	1.361377e-01	3.066470e-01	2.894612e-01	1.718578e-02
34            	3.889918e-02	-2.134718e-02	6.024636e-02	2.295106e-02	5.851807e-03	1.709925e-02	-5.623722e-03	-4.079677e-02	1.358929e-01	3.056156e-01	2.887007e-01	1.691494e-02
35            	3.803203e-02	-2.126625e-02	5.929828e-02	2.374770e-02	5.727118e-03	1.802058e-02	-6.146731e-03	-4.028227e-02	1.356763e-01	3.046477e-01	2.880002e-01	1.664752e-02
36            	3.717789e-02	-2.123298e-02	5.841088e-02	2.443353e-02	5.602923e-03	1.883061e-02	-6.613843e-03	-3.982193e-02	1.355075e-01	3.037697e-01	2.873923e-01	1.637739e-02
37            	3.629077e-02	-2.128099e-02	5.757176e-02	2.499424e-02	5.473264e-03	1.952098e-02	-7.023858e-03	-3.942637e-02	1.354333e-01	3.030347e-01	2.869506e-01	1.608408e-02
38            	3.532353e-02	-2.144704e-02	5.677057e-02	2.537687e-02	5.331726e-03	2.004515e-02	-7.356711e-03	-3.910881e-02	1.354408e-01	3.023854e-01	2.866335e-01	1.575192e-02
39            	3.430249e-02	-2.175078e-02	5.605327e-02	2.545020e-02	5.181801e-03	2.026840e-02	-7.543299e-03	-3.890203e-02	1.354507e-01	3.016891e-01	2.862952e-01	1.539385e-02
40            	3.325055e-02	-2.217497e-02	5.542553e-02	2.520700e-02	5.026662e-03	2.018034e-02	-7.576838e-03	-3.880025e-02	1.354078e-01	3.008613e-01	2.858385e-01	1.502282e-02
41            	3.219209e-02	-2.268156e-02	5.487365e-02	2.469309e-02	4.870475e-03	1.982262e-02	-7.476071e-03	-3.877760e-02	1.352546e-01	2.998128e-01	2.851610e-01	1.465183e-02
42            	3.114591e-02	-2.323933e-02	5.438524e-02	2.396161e-02	4.716796e-03	1.924482e-02	-7.264011e-03	-3.881229e-02	1.349707e-01	2.985209e-01	2.842312e-01	1.428968e-02
43            	3.015952e-02	-2.379421e-02	5.395373e-02	2.309945e-02	4.572679e-03	1.852677e-02	-6.977044e-03	-3.887397e-02	1.345309e-01	2.969682e-01	2.830150e-01	1.395325e-02
44            	2.926180e-02	-2.428902e-02	5.355082e-02	2.221371e-02	4.442087e-03	1.777162e-02	-6.664767e-03	-3.891992e-02	1.338988e-01	2.950992e-01	2.814484e-01	1.365083e-02
45            	2.847340e-02	-2.467653e-02	5.314992e-02	2.140085e-02	4.327810e-03	1.707304e-02	-6.372615e-03	-3.891323e-02	1.330528e-01	2.928822e-01	2.794939e-01	1.338836e-02
46            	2.781497e-02	-2.492724e-02	5.274221e-02	2.071566e-02	4.233058e-03	1.648260e-02	-6.124770e-03	-3.883473e-02	1.319928e-01	2.903244e-01	2.771550e-01	1.316943e-02
47            	2.730272e-02	-2.504986e-02	5.235257e-02	2.010972e-02	4.159896e-03	1.594983e-02	-5.894965e-03	-3.870122e-02	1.307125e-01	2.874190e-01	2.744220e-01	1.299700e-02
48            	2.692186e-02	-2.506022e-02	5.198208e-02	1.957096e-02	4.105147e-03	1.546581e-02	-5.680332e-03	-3.852115e-02	1.292441e-01	2.842156e-01	2.713519e-01	1.286373e-02
49            	2.662548e-02	-2.498895e-02	5.161443e-02	1.908230e-02	4.062271e-03	1.502003e-02	-5.478878e-03	-3.830169e-02	1.276271e-01	2.807601e-01	2.680071e-01	1.275296e-02
50            	2.641855e-02	-2.486484e-02	5.128339e-02	1.858589e-02	4.031868e-03	1.455402e-02	-5.261077e-03	-3.807412e-02	1.259270e-01	2.771872e-01	2.645206e-01	1.266655e-02
51            	2.629605e-02	-2.468975e-02	5.098580e-02	1.811421e-02	4.013960e-03	1.410025e-02	-5.043145e-03	-3.783778e-02	1.242215e-01	2.736500e-01	2.610465e-01	1.260347e-02
52            	2.625046e-02	-2.445238e-02	5.070284e-02	1.773122e-02	4.007645e-03	1.372357e-02	-4.857963e-03	-3.757761e-02	1.225682e-01	2.702620e-01	2.576992e-01	1.256278e-02
53            	2.625450e-02	-2.413225e-02	5.038675e-02	1.755069e-02	4.008845e-03	1.354185e-02	-4.766502e-03	-3.725950e-02	1.210216e-01	2.671180e-01	2.545806e-01	1.253740e-02
54            	2.631177e-02	-2.370359e-02	5.001536e-02	1.765345e-02	4.017645e-03	1.363580e-02	-4.809078e-03	-3.685948e-02	1.196053e-01	2.642694e-01	2.517399e-01	1.252942e-02
55            	2.639547e-02	-2.316229e-02	4.955776e-02	1.810218e-02	4.030077e-03	1.407210e-02	-5.021013e-03	-3.636002e-02	1.183601e-01	2.617780e-01	2.492491e-01	1.252888e-02
56            	2.649133e-02	-2.254035e-02	4.903167e-02	1.884068e-02	4.044194e-03	1.479649e-02	-5.376146e-03	-3.578601e-02	1.173229e-01	2.597078e-01	2.471768e-01	1.253096e-02
57            	2.660362e-02	-2.187762e-02	4.848125e-02	1.975831e-02	4.060711e-03	1.569760e-02	-5.818445e-03	-3.517944e-02	1.165072e-01	2.580889e-01	2.455517e-01	1.253721e-02
58            	2.676221e-02	-2.118357e-02	4.794578e-02	2.078187e-02	4.083909e-03	1.669796e-02	-6.307025e-03	-3.456467e-02	1.158940e-01	2.569061e-01	2.443471e-01	1.255900e-02
59            	2.697682e-02	-2.048169e-02	4.745850e-02	2.183398e-02	4.115018e-03	1.771897e-02	-6.801974e-03	-3.397009e-02	1.154797e-01	2.561616e-01	2.435605e-01	1.260111e-02
60            	2.726087e-02	-1.979829e-02	4.705917e-02	2.283361e-02	4.155738e-03	1.867787e-02	-7.261068e-03	-3.342873e-02	1.152586e-01	2.558550e-01	2.431861e-01	1.266894e-02
61            	2.762589e-02	-1.916772e-02	4.679361e-02	2.367041e-02	4.207498e-03	1.946291e-02	-7.627707e-03	-3.298066e-02	1.152164e-01	2.559649e-01	2.431988e-01	1.276604e-02
62            	2.805093e-02	-1.862178e-02	4.667270e-02	2.427280e-02	4.267489e-03	2.000531e-02	-7.868909e-03	-3.264724e-02	1.153313e-01	2.564347e-01	2.435486e-01	1.288609e-02
63            	2.854792e-02	-1.817379e-02	4.672171e-02	2.458533e-02	4.337316e-03	2.024801e-02	-7.955348e-03	-3.244775e-02	1.155851e-01	2.572368e-01	2.442036e-01	1.303329e-02
64            	2.911511e-02	-1.782307e-02	4.693818e-02	2.458338e-02	4.416621e-03	2.016676e-02	-7.875070e-03	-3.238062e-02	1.159081e-01	2.582327e-01	2.450245e-01	1.320823e-02
65            	2.976265e-02	-1.756352e-02	4.732618e-02	2.425801e-02	4.506919e-03	1.975109e-02	-7.622084e-03	-3.244485e-02	1.162666e-01	2.593605e-01	2.459468e-01	1.341362e-02
66            	3.048467e-02	-1.738592e-02	4.787059e-02	2.363106e-02	4.607617e-03	1.902344e-02	-7.207911e-03	-3.262825e-02	1.166312e-01	2.605548e-01	2.469086e-01	1.364618e-02
67            	3.123887e-02	-1.728381e-02	4.852268e-02	2.276744e-02	4.712996e-03	1.805445e-02	-6.670725e-03	-3.290325e-02	1.169824e-01	2.617444e-01	2.478546e-01	1.388981e-02
68            	3.200747e-02	-1.724412e-02	4.925159e-02	2.171775e-02	4.820179e-03	1.689757e-02	-6.038697e-03	-3.324785e-02	1.173086e-01	2.628896e-01	2.487534e-01	1.413616e-02
69            	3.275646e-02	-1.724980e-02	5.000625e-02	2.057153e-02	4.924372e-03	1.564716e-02	-5.361393e-03	-3.362803e-02	1.176053e-01	2.639520e-01	2.495813e-01	1.437069e-02
70            	3.348564e-02	-1.728303e-02	5.076867e-02	1.937269e-02	5.025769e-03	1.434692e-02	-4.660575e-03	-3.402585e-02	1.178585e-01	2.648999e-01	2.503085e-01	1.459149e-02
71            	3.417037e-02	-1.733771e-02	5.150808e-02	1.816677e-02	5.121226e-03	1.304554e-02	-3.962157e-03	-3.442290e-02	1.180611e-01	2.657014e-01	2.509118e-01	1.478965e-02
72            	3.483955e-02	-1.740290e-02	5.224245e-02	1.694594e-02	5.215106e-03	1.173084e-02	-3.257866e-03	-3.482268e-02	1.182071e-01	2.663634e-01	2.513888e-01	1.497460e-02
73            	3.551272e-02	-1.746284e-02	5.297557e-02	1.572214e-02	5.309827e-03	1.041232e-02	-2.551245e-03	-3.521921e-02	1.182813e-01	2.668704e-01	2.517165e-01	1.515393e-02
74            	3.617515e-02	-1.750482e-02	5.367997e-02	1.455965e-02	5.402879e-03	9.156769e-03	-1.876945e-03	-3.559239e-02	1.183046e-01	2.672551e-01	2.519321e-01	1.532300e-02
75            	3.680567e-02	-1.753031e-02	5.433598e-02	1.347450e-02	5.491523e-03	7.982980e-03	-1.245729e-03	-3.593315e-02	1.182694e-01	2.674916e-01	2.520152e-01	1.547637e-02
76            	3.739220e-02	-1.753217e-02	5.492437e-02	1.249976e-02	5.574141e-03	6.925621e-03	-6.757399e-04	-3.622827e-02	1.181706e-01	2.675647e-01	2.519530e-01	1.561174e-02
77            	3.793780e-02	-1.751148e-02	5.544929e-02	1.161535e-02	5.650976e-03	5.964376e-03	-1.566998e-04	-3.648039e-02	1.179802e-01	2.674257e-01	2.516931e-01	1.573265e-02
78            	3.843317e-02	-1.746869e-02	5.590186e-02	1.084231e-02	5.720747e-03	5.121561e-03	2.995929e-04	-3.668527e-02	1.177221e-01	2.671178e-01	2.512810e-01	1.583682e-02
79            	3.886769e-02	-1.740645e-02	5.627414e-02	1.019554e-02	5.782215e-03	4.413322e-03	6.844467e-04	-3.684029e-02	1.174181e-01	2.666779e-01	2.507571e-01	1.592081e-02
80            	3.924530e-02	-1.734105e-02	5.658635e-02	9.614639e-03	5.835425e-03	3.779214e-03	1.028105e-03	-3.696370e-02	1.170523e-01	2.660801e-01	2.500923e-01	1.598781e-02
81            	3.957474e-02	-1.727422e-02	5.684896e-02	9.101264e-03	5.881624e-03	3.219640e-03	1.330992e-03	-3.706159e-02	1.166582e-01	2.653975e-01	2.493569e-01	1.604056e-02
82            	3.987058e-02	-1.720589e-02	5.707646e-02	8.654486e-03	5.922945e-03	2.731541e-03	1.595702e-03	-3.714118e-02	1.162668e-01	2.647016e-01	2.486176e-01	1.608401e-02
83            	4.014071e-02	-1.713958e-02	5.728029e-02	8.273985e-03	5.960492e-03	2.313493e-03	1.823499e-03	-3.720994e-02	1.159144e-01	2.640696e-01	2.479492e-01	1.612043e-02
84            	4.039858e-02	-1.707063e-02	5.746921e-02	7.974013e-03	5.996306e-03	1.977707e-03	2.009300e-03	-3.726992e-02	1.156382e-01	2.635835e-01	2.474300e-01	1.615350e-02
85            	4.066062e-02	-1.699624e-02	5.765687e-02	7.748598e-03	6.032533e-03	1.716065e-03	2.158234e-03	-3.732656e-02	1.154613e-01	2.632981e-01	2.471103e-01	1.618781e-02
86            	4.092198e-02	-1.692207e-02	5.784405e-02	7.579448e-03	6.068634e-03	1.510814e-03	2.278910e-03	-3.738306e-02	1.153833e-01	2.632094e-01	2.469879e-01	1.622141e-02
87            	4.118561e-02	-1.685549e-02	5.804110e-02	7.428018e-03	6.105022e-03	1.322995e-03	2.391013e-03	-3.744829e-02	1.153946e-01	2.633000e-01	2.470446e-01	1.625540e-02
88            	4.144284e-02	-1.680275e-02	5.824559e-02	7.272356e-03	6.140479e-03	1.131877e-03	2.504301e-03	-3.752417e-02	1.154830e-01	2.635397e-01	2.472529e-01	1.628682e-02
89            	4.170702e-02	-1.675013e-02	5.845716e-02	7.124783e-03	6.176849e-03	9.479332e-04	2.614458e-03	-3.760365e-02	1.156340e-01	2.639085e-01	2.475882e-01	1.632029e-02
90            	4.197047e-02	-1.669181e-02	5.866228e-02	7.004165e-03	6.213454e-03	7.907110e-04	2.711371e-03	-3.767704e-02	1.158356e-01	2.643778e-01	2.480245e-01	1.635329e-02
91            	4.225192e-02	-1.661274e-02	5.886466e-02	6.920830e-03	6.253083e-03	6.677465e-04	2.792668e-03	-3.773870e-02	1.160715e-01	2.649283e-01	2.485356e-01	1.639268e-02
92            	4.257596e-02	-1.650338e-02	5.907934e-02	6.849045e-03	6.299139e-03	5.499058e-04	2.874617e-03	-3.779136e-02	1.163027e-01	2.655002e-01	2.490528e-01	1.644746e-02
93            	4.296130e-02	-1.635075e-02	5.931205e-02	6.780694e-03	6.354239e-03	4.264550e-04	2.963892e-03	-3.783140e-02	1.164923e-01	2.660329e-01	2.495088e-01	1.652413e-02
94            	4.342656e-02	-1.613731e-02	5.956387e-02	6.716970e-03	6.420987e-03	2.959827e-04	3.062502e-03	-3.785059e-02	1.165970e-01	2.664514e-01	2.498227e-01	1.662877e-02
95            	4.399062e-02	-1.585197e-02	5.984259e-02	6.646710e-03	6.501998e-03	1.447121e-04	3.178643e-03	-3.784728e-02	1.165805e-01	2.666960e-01	2.499285e-01	1.676744e-02
96            	4.465907e-02	-1.549532e-02	6.015439e-02	6.554694e-03	6.597698e-03	-4.300384e-05	3.320351e-03	-3.782485e-02	1.164210e-01	2.667255e-01	2.497837e-01	1.694175e-02
97            	4.539979e-02	-1.507775e-02	6.047754e-02	6.453803e-03	6.703563e-03	-2.497595e-04	3.476661e-03	-3.777765e-02	1.161145e-01	2.665091e-01	2.493690e-01	1.714008e-02
98            	4.617121e-02	-1.461151e-02	6.078272e-02	6.373941e-03	6.813713e-03	-4.397716e-04	3.626742e-03	-3.769712e-02	1.156792e-01	2.660526e-01	2.487055e-01	1.734712e-02
99            	4.692032e-02	-1.411293e-02	6.103326e-02	6.347874e-03	6.920504e-03	-5.726306e-04	3.746568e-03	-3.757309e-02	1.151374e-01	2.653620e-01	2.478184e-01	1.754357e-02
100           	4.760836e-02	-1.359508e-02	6.120344e-02	6.401360e-03	7.018372e-03	-6.170118e-04	3.817692e-03	-3.739926e-02	1.145168e-01	2.644637e-01	2.467487e-01	1.771505e-02
101           	4.821771e-02	-1.306587e-02	6.128358e-02	6.548573e-03	7.104770e-03	-5.561974e-04	3.830484e-03	-3.717472e-02	1.138423e-01	2.633943e-01	2.455395e-01	1.785481e-02
102           	4.874970e-02	-1.253805e-02	6.128775e-02	6.764814e-03	7.180005e-03	-4.151911e-04	3.797598e-03	-3.691290e-02	1.131336e-01	2.621947e-01	2.442309e-01	1.796381e-02
103           	4.921507e-02	-1.202154e-02	6.123661e-02	7.024085e-03	7.245806e-03	-2.217210e-04	3.733763e-03	-3.662908e-02	1.124110e-01	2.609153e-01	2.428687e-01	1.804666e-02
104           	4.961178e-02	-1.153226e-02	6.114404e-02	7.304847e-03	7.301960e-03	2.887063e-06	3.649537e-03	-3.633815e-02	1.117027e-01	2.596137e-01	2.415096e-01	1.810416e-02
105           	4.994243e-02	-1.108475e-02	6.102718e-02	7.579053e-03	7.348825e-03	2.302285e-04	3.559298e-03	-3.605596e-02	1.110273e-01	2.583323e-01	2.401934e-01	1.813884e-02
106           	5.020501e-02	-1.069742e-02	6.090243e-02	7.803422e-03	7.386092e-03	4.173294e-04	3.484381e-03	-3.579993e-02	1.103903e-01	2.570845e-01	2.389326e-01	1.815194e-02
107           	5.040555e-02	-1.038304e-02	6.078859e-02	7.938283e-03	7.414750e-03	5.235337e-04	3.445608e-03	-3.558582e-02	1.097933e-01	2.558817e-01	2.377342e-01	1.814755e-02
108           	5.054356e-02	-1.015279e-02	6.069635e-02	7.949320e-03	7.434808e-03	5.145124e-04	3.460148e-03	-3.542457e-02	1.092295e-01	2.547146e-01	2.365868e-01	1.812779e-02
109           	5.063735e-02	-1.000565e-02	6.064300e-02	7.814585e-03	7.448630e-03	3.659554e-04	3.541337e-03	-3.532432e-02	1.086936e-01	2.535894e-01	2.354883e-01	1.810108e-02
110           	5.069919e-02	-9.934875e-03	6.063406e-02	7.539865e-03	7.457927e-03	8.193828e-05	3.687994e-03	-3.528447e-02	1.081953e-01	2.525358e-01	2.344633e-01	1.807256e-02
111           	5.073573e-02	-9.933951e-03	6.066968e-02	7.136304e-03	7.463613e-03	-3.273087e-04	3.895461e-03	-3.530182e-02	1.077384e-01	2.515677e-01	2.335223e-01	1.804540e-02
112           	5.076011e-02	-9.993490e-03	6.075360e-02	6.620365e-03	7.467594e-03	-8.472295e-04	4.157412e-03	-3.537355e-02	1.073335e-01	2.507155e-01	2.326913e-01	1.802429e-02
113           	5.078171e-02	-1.009978e-02	6.088148e-02	6.020474e-03	7.471119e-03	-1.450645e-03	4.460882e-03	-3.549063e-02	1.069897e-01	2.500029e-01	2.319911e-01	1.801172e-02
114           	5.081298e-02	-1.024367e-02	6.105665e-02	5.338678e-03	7.476031e-03	-2.137353e-03	4.806692e-03	-3.565016e-02	1.066998e-01	2.494225e-01	2.314110e-01	1.801144e-02
115           	5.085625e-02	-1.041039e-02	6.126664e-02	4.609052e-03	7.482508e-03	-2.873456e-03	5.177982e-03	-3.583851e-02	1.064627e-01	2.489722e-01	2.309488e-01	1.802340e-02
116           	5.090814e-02	-1.059045e-02	6.149859e-02	3.860787e-03	7.490099e-03	-3.629312e-03	5.559706e-03	-3.604452e-02	1.062782e-01	2.486468e-01	2.306016e-01	1.804518e-02
117           	5.095926e-02	-1.077874e-02	6.173799e-02	3.114107e-03	7.497539e-03	-4.383432e-03	5.940485e-03	-3.625837e-02	1.061375e-01	2.484203e-01	2.303477e-01	1.807265e-02
118           	5.099745e-02	-1.097246e-02	6.196991e-02	2.394075e-03	7.503203e-03	-5.109128e-03	6.306165e-03	-3.647118e-02	1.060407e-01	2.482811e-01	2.301812e-01	1.809986e-02
119           	5.100620e-02	-1.117497e-02	6.218117e-02	1.715884e-03	7.504737e-03	-5.788852e-03	6.646795e-03	-3.667807e-02	1.059904e-01	2.482220e-01	2.301014e-01	1.812065e-02
120           	5.098089e-02	-1.138768e-02	6.236857e-02	1.086823e-03	7.501502e-03	-6.414679e-03	6.958090e-03	-3.687812e-02	1.059877e-01	2.482418e-01	2.301086e-01	1.813323e-02
121           	5.091542e-02	-1.161505e-02	6.253046e-02	5.017810e-04	7.492599e-03	-6.990818e-03	7.241708e-03	-3.707275e-02	1.060272e-01	2.483261e-01	2.301902e-01	1.813587e-02
122           	5.080541e-02	-1.186003e-02	6.266544e-02	-4.982263e-05	7.477438e-03	-7.527261e-03	7.502349e-03	-3.726274e-02	1.060955e-01	2.484455e-01	2.303183e-01	1.812727e-02
123           	5.064417e-02	-1.212309e-02	6.276727e-02	-5.674228e-04	7.455146e-03	-8.022569e-03	7.738857e-03	-3.744518e-02	1.061835e-01	2.485776e-01	2.304723e-01	1.810532e-02
124           	5.043169e-02	-1.239924e-02	6.283093e-02	-1.044800e-03	7.425598e-03	-8.470398e-03	7.947998e-03	-3.761509e-02	1.062800e-01	2.486999e-01	2.306300e-01	1.806995e-02
125           	5.016424e-02	-1.268558e-02	6.284982e-02	-1.478840e-03	7.388259e-03	-8.867100e-03	8.127679e-03	-3.776770e-02	1.063754e-01	2.487895e-01	2.307701e-01	1.801938e-02
126           	4.983924e-02	-1.297757e-02	6.281681e-02	-1.868859e-03	7.342652e-03	-9.211510e-03	8.277081e-03	-3.789719e-02	1.064541e-01	2.488111e-01	2.308596e-01	1.795148e-02
127           	4.945562e-02	-1.327134e-02	6.272696e-02	-2.212382e-03	7.288647e-03	-9.501028e-03	8.394837e-03	-3.799915e-02	1.065078e-01	2.487445e-01	2.308800e-01	1.786442e-02
128           	4.902534e-02	-1.356114e-02	6.258647e-02	-2.516251e-03	7.228026e-03	-9.744277e-03	8.486152e-03	-3.807381e-02	1.065326e-01	2.485862e-01	2.308257e-01	1.776051e-02
129           	4.856309e-02	-1.384224e-02	6.240533e-02	-2.791846e-03	7.162968e-03	-9.954814e-03	8.558891e-03	-3.812379e-02	1.065255e-01	2.483379e-01	2.306944e-01	1.764345e-02
130           	4.808431e-02	-1.410912e-02	6.219343e-02	-3.051184e-03	7.095698e-03	-1.014688e-02	8.621290e-03	-3.815128e-02	1.064800e-01	2.479948e-01	2.304774e-01	1.751740e-02
131           	4.760488e-02	-1.435426e-02	6.195914e-02	-3.291412e-03	7.028507e-03	-1.031992e-02	8.674213e-03	-3.815670e-02	1.064006e-01	2.475743e-01	2.301877e-01	1.738654e-02
132           	4.714293e-02	-1.456859e-02	6.171152e-02	-3.505070e-03	6.964006e-03	-1.046908e-02	8.716541e-03	-3.814005e-02	1.062938e-01	2.470982e-01	2.298429e-01	1.725533e-02
133           	4.672258e-02	-1.473189e-02	6.145447e-02	-3.668124e-03	6.905664e-03	-1.057379e-02	8.739726e-03	-3.809318e-02	1.061568e-01	2.465743e-01	2.294440e-01	1.713035e-02
134           	4.636654e-02	-1.482969e-02	6.119623e-02	-3.779420e-03	6.856740e-03	-1.063616e-02	8.746450e-03	-3.801296e-02	1.059764e-01	2.459884e-01	2.289707e-01	1.701778e-02
135           	4.608813e-02	-1.485047e-02	6.093860e-02	-3.837312e-03	6.819169e-03	-1.065648e-02	8.737825e-03	-3.789454e-02	1.057375e-01	2.453174e-01	2.283962e-01	1.692119e-02
136           	4.587382e-02	-1.479899e-02	6.067281e-02	-3.842719e-03	6.791110e-03	-1.063383e-02	8.712469e-03	-3.773590e-02	1.054399e-01	2.445499e-01	2.277149e-01	1.683501e-02
137           	4.570941e-02	-1.467558e-02	6.038500e-02	-3.786254e-03	6.770566e-03	-1.055682e-02	8.663693e-03	-3.753029e-02	1.050746e-01	2.436568e-01	2.269030e-01	1.675383e-02
138           	4.558256e-02	-1.448308e-02	6.006564e-02	-3.662868e-03	6.755737e-03	-1.041861e-02	8.587171e-03	-3.727436e-02	1.046456e-01	2.426356e-01	2.259634e-01	1.667227e-02
139           	4.548590e-02	-1.422394e-02	5.970984e-02	-3.480859e-03	6.745567e-03	-1.022643e-02	8.485997e-03	-3.696689e-02	1.041472e-01	2.414668e-01	2.248806e-01	1.658624e-02
140           	4.542380e-02	-1.389442e-02	5.931821e-02	-3.243217e-03	6.740575e-03	-9.983792e-03	8.362184e-03	-3.660631e-02	1.035732e-01	2.401391e-01	2.236428e-01	1.649632e-02
141           	4.540412e-02	-1.348738e-02	5.889150e-02	-2.947250e-03	6.741824e-03	-9.689074e-03	8.215449e-03	-3.618944e-02	1.029131e-01	2.386346e-01	2.222304e-01	1.640422e-02
142           	4.544083e-02	-1.299892e-02	5.843976e-02	-2.586366e-03	6.751290e-03	-9.337655e-03	8.044473e-03	-3.571934e-02	1.021793e-01	2.369861e-01	2.206724e-01	1.631370e-02
143           	4.554776e-02	-1.242932e-02	5.797708e-02	-2.163783e-03	6.770962e-03	-8.934745e-03	7.852853e-03	-3.520320e-02	1.013879e-01	2.352330e-01	2.190044e-01	1.622863e-02
144           	4.573602e-02	-1.177830e-02	5.751432e-02	-1.680205e-03	6.802321e-03	-8.482526e-03	7.642423e-03	-3.464631e-02	1.005459e-01	2.333985e-01	2.172451e-01	1.615336e-02
145           	4.600493e-02	-1.105512e-02	5.706005e-02	-1.147609e-03	6.845257e-03	-7.992867e-03	7.419062e-03	-3.405759e-02	9.965911e-02	2.314983e-01	2.154083e-01	1.609006e-02
146           	4.635685e-02	-1.027149e-02	5.662834e-02	-5.814553e-04	6.899978e-03	-7.481433e-03	7.190706e-03	-3.344992e-02	9.873763e-02	2.295637e-01	2.135195e-01	1.604424e-02
147           	4.677981e-02	-9.449961e-03	5.622977e-02	3.422868e-06	6.964708e-03	-6.961285e-03	6.962997e-03	-3.283987e-02	9.779982e-02	2.276343e-01	2.116170e-01	1.601735e-02
148           	4.723538e-02	-8.634401e-03	5.586978e-02	5.781430e-04	7.033906e-03	-6.455763e-03	6.744835e-03	-3.225209e-02	9.688032e-02	2.257706e-01	2.097656e-01	1.600496e-02
149           	4.769298e-02	-7.860475e-03	5.555345e-02	1.116240e-03	7.103143e-03	-5.986903e-03	6.545023e-03	-3.170696e-02	9.600520e-02	2.240199e-01	2.080152e-01	1.600476e-02
150           	4.812923e-02	-7.158720e-03	5.528795e-02	1.592809e-03	7.169008e-03	-5.576199e-03	6.372604e-03	-3.122333e-02	9.519871e-02	2.224309e-01	2.064142e-01	1.601674e-02
151           	4.851379e-02	-6.563375e-03	5.507716e-02	1.989217e-03	7.227155e-03	-5.237938e-03	6.232547e-03	-3.082027e-02	9.449633e-02	2.210688e-01	2.050307e-01	1.603807e-02
152           	4.882879e-02	-6.100860e-03	5.492965e-02	2.292426e-03	7.275031e-03	-4.982605e-03	6.128818e-03	-3.051525e-02	9.393740e-02	2.200093e-01	2.039421e-01	1.606727e-02
153           	4.905539e-02	-5.786240e-03	5.484163e-02	2.504185e-03	7.309930e-03	-4.805745e-03	6.057838e-03	-3.031394e-02	9.353904e-02	2.192776e-01	2.031778e-01	1.609975e-02
154           	4.916141e-02	-5.637803e-03	5.479921e-02	2.616511e-03	7.327235e-03	-4.710725e-03	6.018980e-03	-3.021851e-02	9.331556e-02	2.188814e-01	2.027562e-01	1.612513e-02
155           	4.913069e-02	-5.659985e-03	5.479067e-02	2.633446e-03	7.324597e-03	-4.691151e-03	6.007874e-03	-3.022533e-02	9.327504e-02	2.188217e-01	2.026859e-01	1.613579e-02
156           	4.896247e-02	-5.849228e-03	5.481170e-02	2.551587e-03	7.301839e-03	-4.750252e-03	6.026045e-03	-3.033046e-02	9.341760e-02	2.190894e-01	2.029623e-01	1.612708e-02
157           	4.867219e-02	-6.186361e-03	5.485855e-02	2.376286e-03	7.261104e-03	-4.884818e-03	6.072961e-03	-3.052246e-02	9.372602e-02	2.196483e-01	2.035502e-01	1.609811e-02
158           	4.827983e-02	-6.647292e-03	5.492713e-02	2.126760e-03	7.205216e-03	-5.078456e-03	6.141836e-03	-3.078721e-02	9.418675e-02	2.204713e-01	2.044224e-01	1.604889e-02
159           	4.782089e-02	-7.198189e-03	5.501908e-02	1.819247e-03	7.139324e-03	-5.320077e-03	6.229700e-03	-3.110863e-02	9.477161e-02	2.215122e-01	2.055277e-01	1.598447e-02
160           	4.733790e-02	-7.804180e-03	5.514208e-02	1.474081e-03	7.069553e-03	-5.595472e-03	6.332512e-03	-3.147313e-02	9.546290e-02	2.227524e-01	2.068391e-01	1.591331e-02
161           	4.688292e-02	-8.426916e-03	5.530983e-02	1.088995e-03	7.003324e-03	-5.914328e-03	6.458826e-03	-3.186837e-02	9.621265e-02	2.241233e-01	2.082743e-01	1.584898e-02
162           	4.650560e-02	-9.029196e-03	5.553479e-02	6.624725e-04	6.947699e-03	-6.285227e-03	6.616463e-03	-3.228199e-02	9.697019e-02	2.255521e-01	2.097462e-01	1.580586e-02
163           	4.625554e-02	-9.578127e-03	5.583366e-02	1.874018e-04	6.909842e-03	-6.722440e-03	6.816141e-03	-3.270590e-02	9.768648e-02	2.269715e-01	2.111722e-01	1.579926e-02
164           	4.616978e-02	-1.004494e-02	5.621473e-02	-3.277241e-04	6.895190e-03	-7.222914e-03	7.059052e-03	-3.312984e-02	9.832200e-02	2.283283e-01	2.124862e-01	1.584217e-02
165           	4.625051e-02	-1.042359e-02	5.667411e-02	-8.869589e-04	6.904057e-03	-7.791016e-03	7.347537e-03	-3.354885e-02	9.884775e-02	2.295688e-01	2.136322e-01	1.593666e-02
166           	4.647770e-02	-1.072344e-02	5.720114e-02	-1.496978e-03	6.933607e-03	-8.430585e-03	7.682096e-03	-3.396229e-02	9.925268e-02	2.306593e-01	2.145823e-01	1.607698e-02
167           	4.681380e-02	-1.096543e-02	5.777923e-02	-2.168325e-03	6.978496e-03	-9.146821e-03	8.062659e-03	-3.437233e-02	9.953793e-02	2.315782e-01	2.153270e-01	1.625116e-02
168           	4.720158e-02	-1.116959e-02	5.837117e-02	-2.884005e-03	7.030549e-03	-9.914554e-03	8.472551e-03	-3.477038e-02	9.971219e-02	2.323040e-01	2.158642e-01	1.643982e-02