# Force and moment coefficients
# dragDir     : (1.000000e+00 0.000000e+00 0.000000e+00)
# sideDir     : (0.000000e+00 1.000000e+00 0.000000e+00)
# liftDir     : (0.000000e+00 0.000000e+00 1.000000e+00)
# rollAxis    : (1.000000e+00 0.000000e+00 0.000000e+00)
# pitchAxis   : (0.000000e+00 1.000000e+00 0.000000e+00)
# yawAxis     : (0.000000e+00 0.000000e+00 1.000000e+00)
# magUInf     : 1.750000e+01
# lRef        : 1.854000e+00
# Aref        : 6.650000e-01
# CofR        : (0.000000e+00 0.000000e+00 0.000000e+00)
#
# Time        	Cd            	Cd(f)         	Cd(r)         	Cl            	Cl(f)         	Cl(r)         	CmPitch       	CmRoll        	CmYaw         	Cs            	Cs(f)         	Cs(r)         
1             	2.387818e-02	-1.095836e-01	1.334618e-01	-3.662388e-01	-2.281428e-01	-1.380960e-01	-4.502341e-02	-1.215227e-01	6.305486e-02	8.187849e-02	1.039941e-01	-2.211562e-02
2             	6.732413e-02	-1.978387e-01	2.651628e-01	-2.625326e-01	-1.777681e-01	-8.476447e-02	-4.650183e-02	-2.315008e-01	1.142522e-01	3.428234e-01	2.856639e-01	5.715956e-02
3             	1.117525e-01	-2.778339e-01	3.895864e-01	-1.551782e-01	-1.331314e-01	-2.204677e-02	-5.554232e-02	-3.337102e-01	1.613906e-01	5.912162e-01	4.569987e-01	1.342175e-01
4             	1.365987e-01	-3.307911e-01	4.673898e-01	-6.693977e-02	-1.055904e-01	3.865062e-02	-7.212051e-02	-3.990905e-01	1.925286e-01	7.562730e-01	5.706651e-01	1.856079e-01
5             	1.329925e-01	-3.520056e-01	4.849981e-01	-6.647084e-03	-9.733285e-02	9.068577e-02	-9.400931e-02	-4.185018e-01	2.041056e-01	8.137717e-01	6.109914e-01	2.027803e-01
6             	1.050725e-01	-3.465849e-01	4.516574e-01	2.937979e-02	-1.042107e-01	1.335905e-01	-1.189006e-01	-3.991211e-01	1.991773e-01	7.790816e-01	5.887181e-01	1.903635e-01
7             	6.560802e-02	-3.251763e-01	3.907844e-01	4.825985e-02	-1.191601e-01	1.674200e-01	-1.432900e-01	-3.579804e-01	1.845814e-01	6.914499e-01	5.303063e-01	1.611436e-01
8             	2.912643e-02	-2.982747e-01	3.274012e-01	6.460332e-02	-1.351498e-01	1.997531e-01	-1.674515e-01	-3.128379e-01	1.676878e-01	5.939322e-01	4.646539e-01	1.292783e-01
9             	6.925154e-03	-2.744905e-01	2.814156e-01	8.221454e-02	-1.461936e-01	2.284081e-01	-1.873008e-01	-2.779531e-01	1.542466e-01	5.198998e-01	4.141965e-01	1.057033e-01
10            	3.883330e-03	-2.583609e-01	2.622442e-01	1.011104e-01	-1.483783e-01	2.494886e-01	-1.989334e-01	-2.603026e-01	1.471536e-01	4.854709e-01	3.898891e-01	9.558179e-02
11            	1.722005e-02	-2.507896e-01	2.680096e-01	1.214798e-01	-1.426791e-01	2.641588e-01	-2.034190e-01	-2.593996e-01	1.463571e-01	4.896053e-01	3.911598e-01	9.844553e-02
12            	3.974921e-02	-2.503556e-01	2.901048e-01	1.411873e-01	-1.315974e-01	2.727847e-01	-2.021910e-01	-2.702302e-01	1.499201e-01	5.202215e-01	4.100309e-01	1.101906e-01
13            	6.300715e-02	-2.540518e-01	3.170589e-01	1.609786e-01	-1.179176e-01	2.788962e-01	-1.984069e-01	-2.855554e-01	1.551090e-01	5.607756e-01	4.354968e-01	1.252788e-01
14            	8.039364e-02	-2.589620e-01	3.393556e-01	1.796392e-01	-1.031576e-01	2.827968e-01	-1.929772e-01	-2.991588e-01	1.594459e-01	5.965224e-01	4.577071e-01	1.388153e-01
15            	8.851131e-02	-2.630679e-01	3.515792e-01	1.959113e-01	-8.899025e-02	2.849016e-01	-1.869459e-01	-3.073236e-01	1.614741e-01	6.186449e-01	4.707966e-01	1.478484e-01
16            	8.749883e-02	-2.652725e-01	3.527713e-01	2.099077e-01	-7.657371e-02	2.864814e-01	-1.815276e-01	-3.090219e-01	1.608662e-01	6.249603e-01	4.733463e-01	1.516139e-01
17            	8.014822e-02	-2.654736e-01	3.456219e-01	2.214325e-01	-6.649184e-02	2.879243e-01	-1.772081e-01	-3.055477e-01	1.582142e-01	6.187579e-01	4.675932e-01	1.511647e-01
18            	7.048128e-02	-2.640527e-01	3.345339e-01	2.308173e-01	-5.841630e-02	2.892336e-01	-1.738250e-01	-2.992933e-01	1.545596e-01	6.059021e-01	4.575106e-01	1.483914e-01
19            	6.215653e-02	-2.616279e-01	3.237845e-01	2.388966e-01	-5.160271e-02	2.904993e-01	-1.710510e-01	-2.927062e-01	1.509638e-01	5.924088e-01	4.471682e-01	1.452406e-01
20            	5.752802e-02	-2.587559e-01	3.162839e-01	2.471505e-01	-4.506669e-02	2.922172e-01	-1.686420e-01	-2.875199e-01	1.481748e-01	5.826334e-01	4.394916e-01	1.431419e-01
21            	5.727485e-02	-2.558065e-01	3.130813e-01	2.568920e-01	-3.805313e-02	2.949451e-01	-1.664991e-01	-2.844439e-01	1.464840e-01	5.784223e-01	4.356951e-01	1.427271e-01
22            	6.067713e-02	-2.530239e-01	3.137010e-01	2.685429e-01	-2.995120e-02	2.984941e-01	-1.642227e-01	-2.833625e-01	1.457885e-01	5.793719e-01	4.354745e-01	1.438974e-01
23            	6.624768e-02	-2.503534e-01	3.166011e-01	2.828978e-01	-2.051493e-02	3.034127e-01	-1.619638e-01	-2.834772e-01	1.457377e-01	5.836121e-01	4.375437e-01	1.460684e-01
24            	7.224343e-02	-2.477958e-01	3.200392e-01	2.992097e-01	-1.022500e-02	3.094347e-01	-1.598299e-01	-2.839175e-01	1.459019e-01	5.888072e-01	4.403055e-01	1.485017e-01
25            	7.737618e-02	-2.452988e-01	3.226750e-01	3.164983e-01	4.289185e-04	3.160693e-01	-1.578202e-01	-2.839869e-01	1.459370e-01	5.930512e-01	4.424626e-01	1.505887e-01
26            	8.097314e-02	-2.428547e-01	3.238278e-01	3.332498e-01	1.040688e-02	3.228429e-01	-1.562180e-01	-2.833412e-01	1.456416e-01	5.952743e-01	4.432788e-01	1.519955e-01
27            	8.309057e-02	-2.404305e-01	3.235210e-01	3.483120e-01	1.915557e-02	3.291564e-01	-1.550004e-01	-2.819757e-01	1.450005e-01	5.953160e-01	4.426585e-01	1.526575e-01
28            	8.419439e-02	-2.380286e-01	3.222230e-01	3.610509e-01	2.632615e-02	3.347247e-01	-1.541993e-01	-2.801258e-01	1.441167e-01	5.937243e-01	4.409788e-01	1.527455e-01
29            	8.495179e-02	-2.356895e-01	3.206413e-01	3.708938e-01	3.187515e-02	3.390186e-01	-1.535717e-01	-2.781654e-01	1.431388e-01	5.913326e-01	4.388051e-01	1.525276e-01
30            	8.597598e-02	-2.333417e-01	3.193177e-01	3.785969e-01	3.606722e-02	3.425297e-01	-1.532312e-01	-2.763297e-01	1.422168e-01	5.889187e-01	4.366761e-01	1.522426e-01
31            	8.767932e-02	-2.310726e-01	3.187519e-01	3.833954e-01	3.861861e-02	3.447768e-01	-1.530791e-01	-2.749123e-01	1.414542e-01	5.870209e-01	4.349647e-01	1.520563e-01
32            	9.018984e-02	-2.288720e-01	3.190619e-01	3.861241e-01	4.042685e-02	3.456973e-01	-1.526352e-01	-2.739669e-01	1.408886e-01	5.858753e-01	4.338263e-01	1.520491e-01
33            	9.339744e-02	-2.267529e-01	3.201503e-01	3.870268e-01	4.146215e-02	3.455647e-01	-1.520513e-01	-2.734516e-01	1.404988e-01	5.853913e-01	4.331944e-01	1.521969e-01
34            	9.698455e-02	-2.247193e-01	3.217038e-01	3.868424e-01	4.213241e-02	3.447100e-01	-1.512888e-01	-2.732116e-01	1.402294e-01	5.852895e-01	4.328741e-01	1.524154e-01
35            	1.006719e-01	-2.227534e-01	3.234253e-01	3.861194e-01	4.274242e-02	3.433770e-01	-1.503173e-01	-2.730894e-01	1.400227e-01	5.852922e-01	4.326687e-01	1.526234e-01
36            	1.042238e-01	-2.208659e-01	3.250896e-01	3.851612e-01	4.345970e-02	3.417015e-01	-1.491209e-01	-2.729777e-01	1.398319e-01	5.852107e-01	4.324372e-01	1.527735e-01
37            	1.075192e-01	-2.190369e-01	3.265561e-01	3.842876e-01	4.436369e-02	3.399239e-01	-1.477801e-01	-2.727965e-01	1.396284e-01	5.849493e-01	4.321030e-01	1.528462e-01
38            	1.105289e-01	-2.172664e-01	3.277954e-01	3.835959e-01	4.565848e-02	3.379374e-01	-1.461395e-01	-2.725309e-01	1.394086e-01	5.844995e-01	4.316583e-01	1.528412e-01
39            	1.133140e-01	-2.155617e-01	3.288757e-01	3.829708e-01	4.721455e-02	3.357562e-01	-1.442708e-01	-2.722187e-01	1.391694e-01	5.839577e-01	4.311483e-01	1.528095e-01
40            	1.159461e-01	-2.138995e-01	3.298456e-01	3.824739e-01	4.894533e-02	3.335286e-01	-1.422916e-01	-2.718725e-01	1.389225e-01	5.833866e-01	4.306158e-01	1.527708e-01
41            	1.185198e-01	-2.123233e-01	3.308431e-01	3.815985e-01	5.060770e-02	3.309908e-01	-1.401915e-01	-2.715832e-01	1.386782e-01	5.828972e-01	4.301269e-01	1.527704e-01
42            	1.210733e-01	-2.108497e-01	3.319230e-01	3.799649e-01	5.204955e-02	3.279154e-01	-1.379329e-01	-2.713863e-01	1.384413e-01	5.824770e-01	4.296798e-01	1.527972e-01
43            	1.236339e-01	-2.095454e-01	3.331792e-01	3.770797e-01	5.306017e-02	3.240195e-01	-1.354797e-01	-2.713623e-01	1.382326e-01	5.822142e-01	4.293397e-01	1.528745e-01
44            	1.261607e-01	-2.084063e-01	3.345670e-01	3.730383e-01	5.365190e-02	3.193864e-01	-1.328672e-01	-2.714867e-01	1.380517e-01	5.820550e-01	4.290792e-01	1.529758e-01
45            	1.286113e-01	-2.074716e-01	3.360829e-01	3.677996e-01	5.381852e-02	3.139810e-01	-1.300813e-01	-2.717773e-01	1.378960e-01	5.820450e-01	4.289185e-01	1.531265e-01
46            	1.309586e-01	-2.066865e-01	3.376451e-01	3.616566e-01	5.372745e-02	3.079292e-01	-1.271009e-01	-2.721658e-01	1.377643e-01	5.820688e-01	4.287987e-01	1.532701e-01
47            	1.331802e-01	-2.060365e-01	3.392167e-01	3.548650e-01	5.354439e-02	3.013206e-01	-1.238881e-01	-2.726266e-01	1.376486e-01	5.821221e-01	4.287096e-01	1.534124e-01
48            	1.352809e-01	-2.054381e-01	3.407189e-01	3.479017e-01	5.354107e-02	2.943606e-01	-1.204098e-01	-2.730785e-01	1.375319e-01	5.820953e-01	4.285795e-01	1.535158e-01
49            	1.372920e-01	-2.049048e-01	3.421969e-01	3.406008e-01	5.371173e-02	2.868890e-01	-1.165886e-01	-2.735509e-01	1.374215e-01	5.820095e-01	4.284262e-01	1.535833e-01
50            	1.392683e-01	-2.043883e-01	3.436566e-01	3.331221e-01	5.397753e-02	2.791446e-01	-1.125835e-01	-2.740225e-01	1.373312e-01	5.818402e-01	4.282513e-01	1.535889e-01
51            	1.412399e-01	-2.039069e-01	3.451468e-01	3.252968e-01	5.415170e-02	2.711451e-01	-1.084967e-01	-2.745269e-01	1.372655e-01	5.816345e-01	4.280828e-01	1.535518e-01
52            	1.432469e-01	-2.034262e-01	3.466732e-01	3.172862e-01	5.400833e-02	2.632779e-01	-1.046348e-01	-2.750497e-01	1.372455e-01	5.814269e-01	4.279590e-01	1.534679e-01
53            	1.453099e-01	-2.029471e-01	3.482570e-01	3.091844e-01	5.338415e-02	2.558003e-01	-1.012081e-01	-2.756021e-01	1.372838e-01	5.812931e-01	4.279304e-01	1.533628e-01
54            	1.474158e-01	-2.024370e-01	3.498528e-01	3.013813e-01	5.235549e-02	2.490258e-01	-9.833515e-02	-2.761449e-01	1.373777e-01	5.812587e-01	4.280070e-01	1.532517e-01
55            	1.495595e-01	-2.019199e-01	3.514794e-01	2.938821e-01	5.095683e-02	2.429253e-01	-9.598425e-02	-2.766996e-01	1.375240e-01	5.813959e-01	4.282220e-01	1.531739e-01
56            	1.517318e-01	-2.013695e-01	3.531012e-01	2.868679e-01	4.927113e-02	2.375968e-01	-9.416284e-02	-2.772353e-01	1.377035e-01	5.816585e-01	4.285327e-01	1.531258e-01
57            	1.539678e-01	-2.007922e-01	3.547600e-01	2.802256e-01	4.739953e-02	2.328261e-01	-9.271327e-02	-2.777761e-01	1.379140e-01	5.820930e-01	4.289605e-01	1.531325e-01
58            	1.562959e-01	-2.001182e-01	3.564141e-01	2.743322e-01	4.558240e-02	2.287498e-01	-9.158370e-02	-2.782661e-01	1.381417e-01	5.826351e-01	4.294592e-01	1.531759e-01
59            	1.587472e-01	-1.993133e-01	3.580605e-01	2.693121e-01	4.395126e-02	2.253609e-01	-9.070481e-02	-2.786869e-01	1.383740e-01	5.832613e-01	4.300046e-01	1.532567e-01
60            	1.613783e-01	-1.983209e-01	3.596992e-01	2.652229e-01	4.259264e-02	2.226302e-01	-9.001880e-02	-2.790100e-01	1.385942e-01	5.839189e-01	4.305536e-01	1.533653e-01
61            	1.642247e-01	-1.971189e-01	3.613435e-01	2.621015e-01	4.148532e-02	2.206161e-01	-8.956541e-02	-2.792312e-01	1.387998e-01	5.845940e-01	4.310968e-01	1.534972e-01
62            	1.672804e-01	-1.957174e-01	3.629978e-01	2.598796e-01	4.060789e-02	2.192717e-01	-8.933191e-02	-2.793576e-01	1.389971e-01	5.852942e-01	4.316442e-01	1.536500e-01
63            	1.705391e-01	-1.941242e-01	3.646633e-01	2.586857e-01	4.000793e-02	2.186778e-01	-8.933494e-02	-2.793937e-01	1.391972e-01	5.860779e-01	4.322362e-01	1.538417e-01
64            	1.739656e-01	-1.923748e-01	3.663404e-01	2.583915e-01	3.963287e-02	2.187587e-01	-8.956291e-02	-2.793576e-01	1.394076e-01	5.869748e-01	4.328949e-01	1.540798e-01
65            	1.775105e-01	-1.905206e-01	3.680311e-01	2.588693e-01	3.947425e-02	2.193951e-01	-8.996042e-02	-2.792758e-01	1.396422e-01	5.880617e-01	4.336731e-01	1.543887e-01
66            	1.811011e-01	-1.886556e-01	3.697567e-01	2.597597e-01	3.939137e-02	2.203683e-01	-9.048846e-02	-2.792061e-01	1.399123e-01	5.894089e-01	4.346168e-01	1.547922e-01
67            	1.846883e-01	-1.868105e-01	3.714988e-01	2.612471e-01	3.954494e-02	2.217022e-01	-9.107863e-02	-2.791547e-01	1.402303e-01	5.911210e-01	4.357908e-01	1.553302e-01
68            	1.882236e-01	-1.850065e-01	3.732302e-01	2.635570e-01	4.011215e-02	2.234448e-01	-9.166634e-02	-2.791184e-01	1.406010e-01	5.932691e-01	4.372356e-01	1.560335e-01
69            	1.916932e-01	-1.832681e-01	3.749613e-01	2.665177e-01	4.100867e-02	2.255090e-01	-9.225018e-02	-2.791147e-01	1.410218e-01	5.958799e-01	4.389617e-01	1.569182e-01
70            	1.950542e-01	-1.815842e-01	3.766384e-01	2.703543e-01	4.236340e-02	2.279909e-01	-9.281376e-02	-2.791113e-01	1.414909e-01	5.989036e-01	4.409427e-01	1.579608e-01
71            	1.982880e-01	-1.799472e-01	3.782352e-01	2.751249e-01	4.423143e-02	2.308934e-01	-9.333101e-02	-2.790912e-01	1.419959e-01	6.022809e-01	4.431364e-01	1.591445e-01
72            	2.013523e-01	-1.783623e-01	3.797146e-01	2.808543e-01	4.672548e-02	2.341288e-01	-9.370167e-02	-2.790385e-01	1.425371e-01	6.059340e-01	4.455041e-01	1.604299e-01
73            	2.042148e-01	-1.768152e-01	3.810300e-01	2.874472e-01	4.981569e-02	2.376315e-01	-9.390789e-02	-2.789226e-01	1.431100e-01	6.097002e-01	4.479602e-01	1.617401e-01
74            	2.068356e-01	-1.753133e-01	3.821489e-01	2.946009e-01	5.347452e-02	2.411264e-01	-9.382595e-02	-2.787311e-01	1.437043e-01	6.134177e-01	4.504132e-01	1.630045e-01
75            	2.092039e-01	-1.738440e-01	3.830479e-01	3.020915e-01	5.764298e-02	2.444485e-01	-9.340277e-02	-2.784459e-01	1.442923e-01	6.169293e-01	4.527570e-01	1.641723e-01
76            	2.113134e-01	-1.724611e-01	3.837745e-01	3.091263e-01	6.202312e-02	2.471032e-01	-9.254005e-02	-2.781178e-01	1.448522e-01	6.201434e-01	4.549239e-01	1.652196e-01
77            	2.131951e-01	-1.711647e-01	3.843598e-01	3.152585e-01	6.638137e-02	2.488771e-01	-9.124787e-02	-2.777623e-01	1.453481e-01	6.229596e-01	4.568279e-01	1.661318e-01
78            	2.148390e-01	-1.699959e-01	3.848349e-01	3.199316e-01	7.041188e-02	2.495197e-01	-8.955393e-02	-2.774154e-01	1.457527e-01	6.253020e-01	4.584037e-01	1.668983e-01
79            	2.162358e-01	-1.689824e-01	3.852182e-01	3.229376e-01	7.397060e-02	2.489670e-01	-8.749821e-02	-2.771003e-01	1.460345e-01	6.271581e-01	4.596135e-01	1.675446e-01
80            	2.173633e-01	-1.681504e-01	3.855137e-01	3.241903e-01	7.696530e-02	2.472250e-01	-8.512986e-02	-2.768320e-01	1.461688e-01	6.285307e-01	4.604341e-01	1.680966e-01
81            	2.182428e-01	-1.674904e-01	3.857332e-01	3.238673e-01	7.945910e-02	2.444082e-01	-8.247456e-02	-2.766118e-01	1.461490e-01	6.294637e-01	4.608808e-01	1.685829e-01
82            	2.188966e-01	-1.670059e-01	3.859025e-01	3.220911e-01	8.142509e-02	2.406660e-01	-7.962047e-02	-2.764542e-01	1.459686e-01	6.300483e-01	4.609928e-01	1.690555e-01
83            	2.193757e-01	-1.666891e-01	3.860649e-01	3.189379e-01	8.291216e-02	2.360257e-01	-7.655679e-02	-2.763770e-01	1.456502e-01	6.303694e-01	4.608349e-01	1.695345e-01
84            	2.196869e-01	-1.665539e-01	3.862407e-01	3.145412e-01	8.391815e-02	2.306231e-01	-7.335246e-02	-2.763973e-01	1.452053e-01	6.305462e-01	4.604784e-01	1.700678e-01
85            	2.198694e-01	-1.665961e-01	3.864655e-01	3.089797e-01	8.442303e-02	2.245567e-01	-7.006683e-02	-2.765308e-01	1.446639e-01	6.306824e-01	4.600051e-01	1.706772e-01
86            	2.199417e-01	-1.667971e-01	3.867388e-01	3.023595e-01	8.439905e-02	2.179605e-01	-6.678072e-02	-2.767680e-01	1.440552e-01	6.307885e-01	4.594495e-01	1.713390e-01
87            	2.199244e-01	-1.671374e-01	3.870618e-01	2.949016e-01	8.390681e-02	2.109948e-01	-6.354401e-02	-2.770996e-01	1.434064e-01	6.309224e-01	4.588676e-01	1.720548e-01
88            	2.198094e-01	-1.676048e-01	3.874142e-01	2.868947e-01	8.303337e-02	2.038614e-01	-6.041400e-02	-2.775095e-01	1.427303e-01	6.311179e-01	4.582892e-01	1.728287e-01
89            	2.195978e-01	-1.681751e-01	3.877729e-01	2.785413e-01	8.183288e-02	1.967085e-01	-5.743779e-02	-2.779740e-01	1.420117e-01	6.313579e-01	4.576906e-01	1.736673e-01
90            	2.192752e-01	-1.688397e-01	3.881149e-01	2.702250e-01	8.039693e-02	1.898281e-01	-5.471559e-02	-2.784773e-01	1.412503e-01	6.316794e-01	4.570900e-01	1.745894e-01
91            	2.188528e-01	-1.695595e-01	3.884122e-01	2.622433e-01	7.881714e-02	1.834262e-01	-5.230454e-02	-2.789858e-01	1.404481e-01	6.320406e-01	4.564684e-01	1.755722e-01
92            	2.183287e-01	-1.703267e-01	3.886554e-01	2.548937e-01	7.716835e-02	1.777253e-01	-5.027847e-02	-2.794910e-01	1.396243e-01	6.324661e-01	4.558574e-01	1.766087e-01
93            	2.177077e-01	-1.711135e-01	3.888212e-01	2.484097e-01	7.556030e-02	1.728494e-01	-4.864456e-02	-2.799674e-01	1.387877e-01	6.329325e-01	4.552540e-01	1.776786e-01
94            	2.170312e-01	-1.718961e-01	3.889273e-01	2.428184e-01	7.398358e-02	1.688348e-01	-4.742562e-02	-2.804117e-01	1.379555e-01	6.334463e-01	4.546786e-01	1.787677e-01
95            	2.163252e-01	-1.726496e-01	3.889747e-01	2.382071e-01	7.249258e-02	1.657145e-01	-4.661098e-02	-2.808121e-01	1.371483e-01	6.340085e-01	4.541526e-01	1.798559e-01
96            	2.156164e-01	-1.733763e-01	3.889927e-01	2.345111e-01	7.109184e-02	1.634193e-01	-4.616372e-02	-2.811845e-01	1.363944e-01	6.346445e-01	4.537167e-01	1.809278e-01
97            	2.149209e-01	-1.740805e-01	3.890015e-01	2.316542e-01	6.977709e-02	1.618771e-01	-4.605000e-02	-2.815410e-01	1.357082e-01	6.353774e-01	4.533969e-01	1.819805e-01
98            	2.142549e-01	-1.747595e-01	3.890145e-01	2.296102e-01	6.853782e-02	1.610723e-01	-4.626726e-02	-2.818870e-01	1.350983e-01	6.362308e-01	4.532137e-01	1.830171e-01
99            	2.136225e-01	-1.754434e-01	3.890659e-01	2.281926e-01	6.729466e-02	1.608980e-01	-4.680166e-02	-2.822547e-01	1.345802e-01	6.372663e-01	4.532134e-01	1.840529e-01
100           	2.130912e-01	-1.760809e-01	3.891721e-01	2.275941e-01	6.615699e-02	1.614372e-01	-4.764008e-02	-2.826265e-01	1.341722e-01	6.385161e-01	4.534302e-01	1.850859e-01
101           	2.126905e-01	-1.766393e-01	3.893297e-01	2.279315e-01	6.515048e-02	1.627810e-01	-4.881527e-02	-2.829845e-01	1.338701e-01	6.399886e-01	4.538644e-01	1.861242e-01
102           	2.124052e-01	-1.771331e-01	3.895383e-01	2.292836e-01	6.431947e-02	1.649641e-01	-5.032232e-02	-2.833357e-01	1.337030e-01	6.417463e-01	4.545762e-01	1.871701e-01
103           	2.121573e-01	-1.775901e-01	3.897474e-01	2.316953e-01	6.369365e-02	1.680016e-01	-5.215398e-02	-2.836688e-01	1.336801e-01	6.437767e-01	4.555684e-01	1.882083e-01
104           	2.119373e-01	-1.780118e-01	3.899491e-01	2.352121e-01	6.334677e-02	1.718653e-01	-5.425928e-02	-2.839805e-01	1.337891e-01	6.461042e-01	4.568411e-01	1.892630e-01
105           	2.116872e-01	-1.784375e-01	3.901246e-01	2.397906e-01	6.327126e-02	1.765193e-01	-5.662402e-02	-2.842811e-01	1.340101e-01	6.487469e-01	4.583835e-01	1.903634e-01
106           	2.114081e-01	-1.788915e-01	3.902996e-01	2.452427e-01	6.346966e-02	1.817731e-01	-5.915170e-02	-2.845956e-01	1.343319e-01	6.517439e-01	4.602038e-01	1.915400e-01
107           	2.110890e-01	-1.793979e-01	3.904869e-01	2.512629e-01	6.390972e-02	1.873532e-01	-6.172173e-02	-2.849424e-01	1.347331e-01	6.550938e-01	4.622800e-01	1.928138e-01
108           	2.107391e-01	-1.799613e-01	3.907005e-01	2.575700e-01	6.458689e-02	1.929831e-01	-6.419813e-02	-2.853309e-01	1.352028e-01	6.587570e-01	4.645813e-01	1.941757e-01
109           	2.103105e-01	-1.806107e-01	3.909211e-01	2.639647e-01	6.545706e-02	1.985077e-01	-6.652530e-02	-2.857659e-01	1.357203e-01	6.626951e-01	4.670678e-01	1.956273e-01
110           	2.098135e-01	-1.813043e-01	3.911178e-01	2.702873e-01	6.652343e-02	2.037639e-01	-6.862024e-02	-2.862110e-01	1.362425e-01	6.667440e-01	4.696145e-01	1.971295e-01
111           	2.092279e-01	-1.820216e-01	3.912496e-01	2.762872e-01	6.766639e-02	2.086208e-01	-7.047719e-02	-2.866356e-01	1.367083e-01	6.707276e-01	4.720721e-01	1.986555e-01
112           	2.085605e-01	-1.827094e-01	3.912699e-01	2.818157e-01	6.877411e-02	2.130416e-01	-7.213374e-02	-2.869897e-01	1.370619e-01	6.744222e-01	4.742730e-01	2.001492e-01
113           	2.077993e-01	-1.833248e-01	3.911240e-01	2.868285e-01	6.976033e-02	2.170682e-01	-7.365392e-02	-2.872244e-01	1.372608e-01	6.776357e-01	4.760787e-01	2.015571e-01
114           	2.070153e-01	-1.838031e-01	3.908184e-01	2.910400e-01	7.053014e-02	2.205098e-01	-7.498985e-02	-2.873108e-01	1.372890e-01	6.801933e-01	4.773856e-01	2.028077e-01
115           	2.062776e-01	-1.840953e-01	3.903729e-01	2.943755e-01	7.107222e-02	2.233032e-01	-7.611551e-02	-2.872341e-01	1.371357e-01	6.820177e-01	4.781446e-01	2.038731e-01
116           	2.056730e-01	-1.841655e-01	3.898385e-01	2.965565e-01	7.128801e-02	2.252685e-01	-7.699024e-02	-2.870020e-01	1.367983e-01	6.830635e-01	4.783300e-01	2.047334e-01
117           	2.052411e-01	-1.840514e-01	3.892925e-01	2.973159e-01	7.109099e-02	2.262249e-01	-7.756693e-02	-2.866719e-01	1.363184e-01	6.834525e-01	4.780447e-01	2.054078e-01
118           	2.049975e-01	-1.837512e-01	3.887487e-01	2.966905e-01	7.042200e-02	2.262685e-01	-7.792327e-02	-2.862499e-01	1.357090e-01	6.832167e-01	4.773173e-01	2.058994e-01
119           	2.049170e-01	-1.833289e-01	3.882459e-01	2.946451e-01	6.925354e-02	2.253915e-01	-7.806900e-02	-2.857874e-01	1.349908e-01	6.824984e-01	4.762400e-01	2.062584e-01
120           	2.049683e-01	-1.827985e-01	3.877668e-01	2.914561e-01	6.765249e-02	2.238036e-01	-7.807554e-02	-2.852826e-01	1.341573e-01	6.813480e-01	4.748312e-01	2.065167e-01
121           	2.051016e-01	-1.822340e-01	3.873356e-01	2.871500e-01	6.562402e-02	2.215259e-01	-7.795096e-02	-2.847848e-01	1.332243e-01	6.799049e-01	4.731768e-01	2.067281e-01
122           	2.052870e-01	-1.816053e-01	3.868923e-01	2.823152e-01	6.339198e-02	2.189232e-01	-7.776562e-02	-2.842488e-01	1.321945e-01	6.781894e-01	4.712891e-01	2.069002e-01
123           	2.054916e-01	-1.809650e-01	3.864566e-01	2.769736e-01	6.097025e-02	2.160034e-01	-7.751656e-02	-2.837108e-01	1.310954e-01	6.763179e-01	4.692544e-01	2.070635e-01
124           	2.057313e-01	-1.802382e-01	3.859696e-01	2.716074e-01	5.854826e-02	2.130591e-01	-7.725542e-02	-2.831039e-01	1.299344e-01	6.742435e-01	4.670562e-01	2.071873e-01
125           	2.060374e-01	-1.794075e-01	3.854450e-01	2.664196e-01	5.621467e-02	2.102049e-01	-7.699511e-02	-2.824262e-01	1.287431e-01	6.720533e-01	4.647698e-01	2.072835e-01
126           	2.064548e-01	-1.783992e-01	3.848540e-01	2.617625e-01	5.410262e-02	2.076598e-01	-7.677861e-02	-2.816266e-01	1.275571e-01	6.697086e-01	4.624114e-01	2.072972e-01
127           	2.070346e-01	-1.772288e-01	3.842633e-01	2.577136e-01	5.221191e-02	2.055017e-01	-7.664491e-02	-2.807460e-01	1.264424e-01	6.673688e-01	4.601268e-01	2.072420e-01
128           	2.077799e-01	-1.758859e-01	3.836658e-01	2.545016e-01	5.057880e-02	2.039228e-01	-7.667199e-02	-2.797759e-01	1.254293e-01	6.650616e-01	4.579601e-01	2.071015e-01
129           	2.087167e-01	-1.744154e-01	3.831320e-01	2.520634e-01	4.915665e-02	2.029067e-01	-7.687504e-02	-2.787737e-01	1.245518e-01	6.629362e-01	4.560199e-01	2.069163e-01
130           	2.098076e-01	-1.728182e-01	3.826258e-01	2.504742e-01	4.795899e-02	2.025152e-01	-7.727812e-02	-2.777220e-01	1.238255e-01	6.609224e-01	4.542867e-01	2.066357e-01
131           	2.110989e-01	-1.710865e-01	3.821853e-01	2.496193e-01	4.691891e-02	2.027004e-01	-7.789076e-02	-2.766359e-01	1.232545e-01	6.590127e-01	4.527608e-01	2.062519e-01
132           	2.125321e-01	-1.692351e-01	3.817672e-01	2.494599e-01	4.601220e-02	2.034477e-01	-7.871776e-02	-2.755011e-01	1.228173e-01	6.571370e-01	4.513858e-01	2.057512e-01
133           	2.141295e-01	-1.672613e-01	3.813908e-01	2.498860e-01	4.516486e-02	2.047211e-01	-7.977811e-02	-2.743261e-01	1.225095e-01	6.552974e-01	4.501582e-01	2.051392e-01
134           	2.158245e-01	-1.651847e-01	3.810092e-01	2.507837e-01	4.434560e-02	2.064381e-01	-8.104625e-02	-2.730969e-01	1.222739e-01	6.534201e-01	4.489840e-01	2.044361e-01
135           	2.176135e-01	-1.630275e-01	3.806410e-01	2.520966e-01	4.353354e-02	2.085631e-01	-8.251476e-02	-2.718342e-01	1.220943e-01	6.515673e-01	4.478779e-01	2.036893e-01
136           	2.194662e-01	-1.608392e-01	3.803054e-01	2.536726e-01	4.278577e-02	2.108869e-01	-8.405055e-02	-2.705723e-01	1.219502e-01	6.497945e-01	4.468475e-01	2.029470e-01
137           	2.213612e-01	-1.586713e-01	3.800325e-01	2.553798e-01	4.206508e-02	2.133147e-01	-8.562481e-02	-2.693519e-01	1.218384e-01	6.482079e-01	4.459423e-01	2.022655e-01
138           	2.232450e-01	-1.565881e-01	3.798331e-01	2.570290e-01	4.142732e-02	2.156017e-01	-8.708720e-02	-2.682106e-01	1.217471e-01	6.468484e-01	4.451714e-01	2.016771e-01
139           	2.251171e-01	-1.546300e-01	3.797471e-01	2.584057e-01	4.084404e-02	2.175616e-01	-8.835878e-02	-2.671885e-01	1.216826e-01	6.457614e-01	4.445632e-01	2.011981e-01
140           	2.269521e-01	-1.528438e-01	3.797960e-01	2.592358e-01	4.032047e-02	2.189154e-01	-8.929745e-02	-2.663199e-01	1.216425e-01	6.449483e-01	4.441167e-01	2.008316e-01
141           	2.287624e-01	-1.512502e-01	3.800126e-01	2.593139e-01	3.983467e-02	2.194792e-01	-8.982228e-02	-2.656314e-01	1.216358e-01	6.444177e-01	4.438447e-01	2.005730e-01
142           	2.305223e-01	-1.498636e-01	3.803860e-01	2.585247e-01	3.940926e-02	2.191155e-01	-8.985310e-02	-2.651248e-01	1.216581e-01	6.441194e-01	4.437178e-01	2.004016e-01
143           	2.322058e-01	-1.487126e-01	3.809184e-01	2.566801e-01	3.898642e-02	2.176937e-01	-8.935362e-02	-2.648155e-01	1.217165e-01	6.440451e-01	4.437391e-01	2.003060e-01
144           	2.337720e-01	-1.478166e-01	3.815886e-01	2.537762e-01	3.851650e-02	2.152597e-01	-8.837159e-02	-2.647026e-01	1.218194e-01	6.441904e-01	4.439146e-01	2.002758e-01
145           	2.351683e-01	-1.472002e-01	3.823685e-01	2.497890e-01	3.795064e-02	2.118383e-01	-8.694385e-02	-2.647843e-01	1.219721e-01	6.445502e-01	4.442472e-01	2.003030e-01
146           	2.363799e-01	-1.468577e-01	3.832376e-01	2.448901e-01	3.725050e-02	2.076396e-01	-8.519456e-02	-2.650476e-01	1.221750e-01	6.451415e-01	4.447458e-01	2.003957e-01
147           	2.373835e-01	-1.467639e-01	3.841474e-01	2.393171e-01	3.644767e-02	2.028694e-01	-8.321088e-02	-2.654556e-01	1.224224e-01	6.459156e-01	4.453802e-01	2.005354e-01
148           	2.381995e-01	-1.468743e-01	3.850738e-01	2.333721e-01	3.558315e-02	1.977890e-01	-8.110291e-02	-2.659740e-01	1.227156e-01	6.468560e-01	4.461436e-01	2.007124e-01
149           	2.388366e-01	-1.471489e-01	3.859855e-01	2.271639e-01	3.466751e-02	1.924964e-01	-7.891442e-02	-2.665672e-01	1.230519e-01	6.478820e-01	4.469929e-01	2.008892e-01
150           	2.393008e-01	-1.475747e-01	3.868755e-01	2.208912e-01	3.373166e-02	1.871596e-01	-7.671396e-02	-2.672251e-01	1.234306e-01	6.490353e-01	4.479483e-01	2.010870e-01
151           	2.396245e-01	-1.480984e-01	3.877230e-01	2.146832e-01	3.279258e-02	1.818907e-01	-7.454904e-02	-2.679107e-01	1.238430e-01	6.502380e-01	4.489620e-01	2.012760e-01
152           	2.398533e-01	-1.486791e-01	3.885325e-01	2.087546e-01	3.189338e-02	1.768612e-01	-7.248391e-02	-2.686058e-01	1.242815e-01	6.514967e-01	4.500299e-01	2.014668e-01
153           	2.400243e-01	-1.492690e-01	3.892933e-01	2.031927e-01	3.103447e-02	1.721582e-01	-7.056189e-02	-2.692812e-01	1.247311e-01	6.527566e-01	4.511094e-01	2.016472e-01
154           	2.401600e-01	-1.498326e-01	3.899927e-01	1.982128e-01	3.025867e-02	1.679541e-01	-6.884771e-02	-2.699126e-01	1.251868e-01	6.540043e-01	4.521889e-01	2.018154e-01
155           	2.402626e-01	-1.503336e-01	3.905962e-01	1.938702e-01	2.957866e-02	1.642916e-01	-6.735646e-02	-2.704649e-01	1.256399e-01	6.551438e-01	4.532118e-01	2.019320e-01
156           	2.403206e-01	-1.507674e-01	3.910880e-01	1.902785e-01	2.901714e-02	1.612613e-01	-6.612208e-02	-2.709277e-01	1.260867e-01	6.561590e-01	4.541662e-01	2.019928e-01
157           	2.403279e-01	-1.511226e-01	3.914505e-01	1.874197e-01	2.858300e-02	1.588367e-01	-6.512684e-02	-2.712866e-01	1.265189e-01	6.569900e-01	4.550139e-01	2.019761e-01
158           	2.402614e-01	-1.514039e-01	3.916653e-01	1.853638e-01	2.831590e-02	1.570479e-01	-6.436600e-02	-2.715346e-01	1.269294e-01	6.576185e-01	4.557387e-01	2.018799e-01
159           	2.401229e-01	-1.516182e-01	3.917410e-01	1.840415e-01	2.819386e-02	1.558477e-01	-6.382690e-02	-2.716796e-01	1.273075e-01	6.580410e-01	4.563280e-01	2.017130e-01
160           	2.399464e-01	-1.517543e-01	3.917007e-01	1.834651e-01	2.823136e-02	1.552338e-01	-6.350121e-02	-2.717275e-01	1.276523e-01	6.582868e-01	4.567957e-01	2.014912e-01
161           	2.397671e-01	-1.518105e-01	3.915776e-01	1.836058e-01	2.839875e-02	1.552070e-01	-6.340414e-02	-2.716941e-01	1.279625e-01	6.584058e-01	4.571654e-01	2.012405e-01
162           	2.395733e-01	-1.518371e-01	3.914104e-01	1.841028e-01	2.857590e-02	1.555269e-01	-6.347551e-02	-2.716237e-01	1.282374e-01	6.584432e-01	4.574590e-01	2.009842e-01
163           	2.393693e-01	-1.518445e-01	3.912138e-01	1.849417e-01	2.874093e-02	1.562008e-01	-6.372992e-02	-2.715291e-01	1.284797e-01	6.584267e-01	4.576930e-01	2.007336e-01
164           	2.391685e-01	-1.518586e-01	3.910271e-01	1.857822e-01	2.878998e-02	1.569922e-01	-6.410112e-02	-2.714429e-01	1.286844e-01	6.583605e-01	4.578646e-01	2.004959e-01
165           	2.389754e-01	-1.518616e-01	3.908370e-01	1.867476e-01	2.876613e-02	1.579815e-01	-6.460768e-02	-2.713493e-01	1.288500e-01	6.582210e-01	4.579605e-01	2.002605e-01
166           	2.387770e-01	-1.518743e-01	3.906512e-01	1.875434e-01	2.857037e-02	1.589731e-01	-6.520135e-02	-2.712628e-01	1.289575e-01	6.579639e-01	4.579395e-01	2.000244e-01
167           	2.385673e-01	-1.518671e-01	3.904344e-01	1.882660e-01	2.826344e-02	1.600026e-01	-6.586958e-02	-2.711507e-01	1.289969e-01	6.574951e-01	4.577445e-01	1.997506e-01
168           	2.383043e-01	-1.518680e-01	3.901723e-01	1.886532e-01	2.779445e-02	1.608587e-01	-6.653214e-02	-2.710202e-01	1.289470e-01	6.567795e-01	4.573367e-01	1.994427e-01