# Force and moment coefficients
# dragDir     : (1.000000e+00 0.000000e+00 0.000000e+00)
# sideDir     : (0.000000e+00 1.000000e+00 0.000000e+00)
# liftDir     : (0.000000e+00 0.000000e+00 1.000000e+00)
# rollAxis    : (1.000000e+00 0.000000e+00 0.000000e+00)
# pitchAxis   : (0.000000e+00 1.000000e+00 0.000000e+00)
# yawAxis     : (0.000000e+00 0.000000e+00 1.000000e+00)
# magUInf     : 1.750000e+01
# lRef        : 1.854000e+00
# Aref        : 6.650000e-01
# CofR        : (0.000000e+00 0.000000e+00 0.000000e+00)
#
# Time        	Cd            	Cd(f)         	Cd(r)         	Cl            	Cl(f)         	Cl(r)         	CmPitch       	CmRoll        	CmYaw         	Cs            	Cs(f)         	Cs(r)         
1801          	2.038059e-02	-2.028757e-02	4.066816e-02	9.127886e-03	1.230516e-02	-3.177277e-03	7.741221e-03	-3.047786e-02	-1.145632e-01	2.057274e-01	-1.169955e-02	2.174269e-01
1802          	2.037354e-02	-2.029495e-02	4.066848e-02	9.115285e-03	1.229152e-02	-3.176236e-03	7.733879e-03	-3.048172e-02	-1.145611e-01	2.057264e-01	-1.169786e-02	2.174243e-01
1803          	2.036716e-02	-2.030270e-02	4.066986e-02	9.101468e-03	1.227676e-02	-3.175291e-03	7.726025e-03	-3.048628e-02	-1.145596e-01	2.057266e-01	-1.169632e-02	2.174229e-01
1804          	2.036089e-02	-2.031062e-02	4.067150e-02	9.086933e-03	1.226130e-02	-3.174366e-03	7.717832e-03	-3.049106e-02	-1.145577e-01	2.057261e-01	-1.169468e-02	2.174207e-01
1805          	2.035638e-02	-2.031864e-02	4.067502e-02	9.070146e-03	1.224384e-02	-3.173698e-03	7.708771e-03	-3.049683e-02	-1.145566e-01	2.057263e-01	-1.169347e-02	2.174198e-01
1806          	2.035399e-02	-2.032621e-02	4.068020e-02	9.051629e-03	1.222495e-02	-3.173324e-03	7.699139e-03	-3.050320e-02	-1.145557e-01	2.057257e-01	-1.169280e-02	2.174185e-01
1807          	2.035418e-02	-2.033318e-02	4.068735e-02	9.031307e-03	1.220462e-02	-3.173309e-03	7.688962e-03	-3.051026e-02	-1.145551e-01	2.057245e-01	-1.169280e-02	2.174173e-01
1808          	2.035617e-02	-2.033937e-02	4.069554e-02	9.010702e-03	1.218425e-02	-3.173551e-03	7.678902e-03	-3.051746e-02	-1.145546e-01	2.057228e-01	-1.169320e-02	2.174160e-01
1809          	2.035956e-02	-2.034501e-02	4.070458e-02	8.990115e-03	1.216412e-02	-3.174002e-03	7.669059e-03	-3.052479e-02	-1.145547e-01	2.057218e-01	-1.169386e-02	2.174156e-01
1810          	2.036409e-02	-2.034977e-02	4.071386e-02	8.970088e-03	1.214471e-02	-3.174627e-03	7.659671e-03	-3.053182e-02	-1.145545e-01	2.057195e-01	-1.169473e-02	2.174142e-01
1811          	2.036900e-02	-2.035376e-02	4.072275e-02	8.950957e-03	1.212628e-02	-3.175323e-03	7.650801e-03	-3.053825e-02	-1.145530e-01	2.057147e-01	-1.169563e-02	2.174103e-01
1812          	2.037416e-02	-2.035653e-02	4.073069e-02	8.933058e-03	1.210912e-02	-3.176058e-03	7.642587e-03	-3.054361e-02	-1.145488e-01	2.057044e-01	-1.169657e-02	2.174010e-01
1813          	2.037966e-02	-2.035803e-02	4.073769e-02	8.916013e-03	1.209285e-02	-3.176839e-03	7.634846e-03	-3.054786e-02	-1.145413e-01	2.056873e-01	-1.169763e-02	2.173849e-01
1814          	2.038561e-02	-2.035760e-02	4.074321e-02	8.900741e-03	1.207842e-02	-3.177683e-03	7.628053e-03	-3.055040e-02	-1.145295e-01	2.056611e-01	-1.169892e-02	2.173601e-01
1815          	2.039195e-02	-2.035507e-02	4.074702e-02	8.887970e-03	1.206655e-02	-3.178583e-03	7.622568e-03	-3.055105e-02	-1.145136e-01	2.056264e-01	-1.170042e-02	2.173268e-01
1816          	2.039828e-02	-2.034995e-02	4.074822e-02	8.878804e-03	1.205829e-02	-3.179484e-03	7.618886e-03	-3.054908e-02	-1.144925e-01	2.055811e-01	-1.170202e-02	2.172831e-01
1817          	2.040477e-02	-2.034269e-02	4.074746e-02	8.873143e-03	1.205356e-02	-3.180415e-03	7.616986e-03	-3.054507e-02	-1.144683e-01	2.055291e-01	-1.170377e-02	2.172328e-01
1818          	2.041171e-02	-2.033293e-02	4.074464e-02	8.870707e-03	1.205212e-02	-3.181410e-03	7.616764e-03	-3.053879e-02	-1.144402e-01	2.054688e-01	-1.170576e-02	2.171746e-01
1819          	2.041948e-02	-2.032078e-02	4.074026e-02	8.871573e-03	1.205410e-02	-3.182529e-03	7.618315e-03	-3.053052e-02	-1.144095e-01	2.054027e-01	-1.170812e-02	2.171108e-01
1820          	2.042821e-02	-2.030614e-02	4.073435e-02	8.875533e-03	1.205931e-02	-3.183781e-03	7.621548e-03	-3.052025e-02	-1.143760e-01	2.053302e-01	-1.171088e-02	2.170411e-01
1821          	2.043694e-02	-2.028926e-02	4.072620e-02	8.883266e-03	1.206827e-02	-3.185009e-03	7.626642e-03	-3.050773e-02	-1.143394e-01	2.052513e-01	-1.171370e-02	2.169650e-01
1822          	2.044673e-02	-2.027031e-02	4.071704e-02	8.893373e-03	1.207972e-02	-3.186350e-03	7.633036e-03	-3.049367e-02	-1.143006e-01	2.051673e-01	-1.171692e-02	2.168842e-01
1823          	2.045837e-02	-2.024936e-02	4.070773e-02	8.905580e-03	1.209349e-02	-3.187912e-03	7.640702e-03	-3.047854e-02	-1.142610e-01	2.050805e-01	-1.172074e-02	2.168013e-01
1824          	2.047270e-02	-2.022652e-02	4.069923e-02	8.919272e-03	1.210909e-02	-3.189815e-03	7.649451e-03	-3.046288e-02	-1.142218e-01	2.049928e-01	-1.172540e-02	2.167182e-01
1825          	2.048918e-02	-2.020203e-02	4.069122e-02	8.934573e-03	1.212660e-02	-3.192022e-03	7.659309e-03	-3.044663e-02	-1.141827e-01	2.049040e-01	-1.173069e-02	2.166347e-01
1826          	2.050718e-02	-2.017627e-02	4.068345e-02	8.952139e-03	1.214659e-02	-3.194449e-03	7.670518e-03	-3.042986e-02	-1.141448e-01	2.048170e-01	-1.173635e-02	2.165533e-01
1827          	2.052618e-02	-2.014925e-02	4.067543e-02	8.973795e-03	1.217079e-02	-3.196999e-03	7.683897e-03	-3.041234e-02	-1.141099e-01	2.047357e-01	-1.174211e-02	2.164778e-01
1828          	2.054374e-02	-2.012160e-02	4.066534e-02	9.002301e-03	1.220163e-02	-3.199332e-03	7.700483e-03	-3.039347e-02	-1.140787e-01	2.046632e-01	-1.174709e-02	2.164103e-01
1829          	2.055909e-02	-2.009360e-02	4.065269e-02	9.037700e-03	1.223906e-02	-3.201359e-03	7.720210e-03	-3.037314e-02	-1.140507e-01	2.045995e-01	-1.175099e-02	2.163504e-01
1830          	2.057448e-02	-2.006578e-02	4.064027e-02	9.076389e-03	1.227980e-02	-3.203415e-03	7.741609e-03	-3.035303e-02	-1.140278e-01	2.045465e-01	-1.175456e-02	2.163011e-01
1831          	2.059108e-02	-2.003850e-02	4.062958e-02	9.115445e-03	1.232112e-02	-3.205670e-03	7.763392e-03	-3.033404e-02	-1.140100e-01	2.045036e-01	-1.175823e-02	2.162618e-01
1832          	2.060946e-02	-2.001191e-02	4.062137e-02	9.153521e-03	1.236173e-02	-3.208209e-03	7.784969e-03	-3.031664e-02	-1.139975e-01	2.044706e-01	-1.176222e-02	2.162329e-01
1833          	2.062988e-02	-1.998644e-02	4.061632e-02	9.188467e-03	1.239954e-02	-3.211069e-03	7.805302e-03	-3.030138e-02	-1.139897e-01	2.044460e-01	-1.176667e-02	2.162127e-01
1834          	2.065222e-02	-1.996233e-02	4.061455e-02	9.218336e-03	1.243257e-02	-3.214232e-03	7.823400e-03	-3.028844e-02	-1.139845e-01	2.044258e-01	-1.177163e-02	2.161974e-01
1835          	2.067620e-02	-1.993959e-02	4.061579e-02	9.242730e-03	1.246039e-02	-3.217656e-03	7.839020e-03	-3.027769e-02	-1.139809e-01	2.044077e-01	-1.177706e-02	2.161848e-01
1836          	2.070138e-02	-1.991808e-02	4.061946e-02	9.261581e-03	1.248286e-02	-3.221276e-03	7.852067e-03	-3.026877e-02	-1.139772e-01	2.043886e-01	-1.178289e-02	2.161715e-01
1837          	2.072666e-02	-1.989766e-02	4.062431e-02	9.276501e-03	1.250143e-02	-3.224934e-03	7.863184e-03	-3.026099e-02	-1.139725e-01	2.043676e-01	-1.178873e-02	2.161563e-01
1838          	2.075100e-02	-1.987844e-02	4.062944e-02	9.288272e-03	1.251675e-02	-3.228483e-03	7.872619e-03	-3.025394e-02	-1.139661e-01	2.043437e-01	-1.179426e-02	2.161380e-01
1839          	2.077423e-02	-1.986040e-02	4.063463e-02	9.298014e-03	1.252990e-02	-3.231888e-03	7.880895e-03	-3.024751e-02	-1.139589e-01	2.043190e-01	-1.179936e-02	2.161184e-01
1840          	2.079530e-02	-1.984361e-02	4.063891e-02	9.307013e-03	1.254202e-02	-3.235004e-03	7.888510e-03	-3.024126e-02	-1.139506e-01	2.042938e-01	-1.180368e-02	2.160975e-01
1841          	2.081428e-02	-1.982775e-02	4.064203e-02	9.316827e-03	1.255466e-02	-3.237834e-03	7.896247e-03	-3.023489e-02	-1.139423e-01	2.042700e-01	-1.180726e-02	2.160773e-01
1842          	2.083095e-02	-1.981234e-02	4.064329e-02	9.328726e-03	1.256907e-02	-3.240346e-03	7.904709e-03	-3.022782e-02	-1.139335e-01	2.042468e-01	-1.181009e-02	2.160569e-01
1843          	2.084661e-02	-1.979713e-02	4.064375e-02	9.342585e-03	1.258531e-02	-3.242721e-03	7.914014e-03	-3.022044e-02	-1.139260e-01	2.042268e-01	-1.181263e-02	2.160394e-01
1844          	2.086080e-02	-1.978184e-02	4.064264e-02	9.359325e-03	1.260421e-02	-3.244881e-03	7.924544e-03	-3.021224e-02	-1.139192e-01	2.042088e-01	-1.181484e-02	2.160236e-01
1845          	2.087371e-02	-1.976651e-02	4.064022e-02	9.378712e-03	1.262556e-02	-3.246844e-03	7.936200e-03	-3.020336e-02	-1.139135e-01	2.041933e-01	-1.181683e-02	2.160101e-01
1846          	2.088472e-02	-1.975091e-02	4.063563e-02	9.401212e-03	1.264973e-02	-3.248519e-03	7.949125e-03	-3.019327e-02	-1.139073e-01	2.041777e-01	-1.181851e-02	2.159962e-01
1847          	2.089429e-02	-1.973510e-02	4.062939e-02	9.426132e-03	1.267611e-02	-3.249979e-03	7.963045e-03	-3.018225e-02	-1.139011e-01	2.041621e-01	-1.182006e-02	2.159822e-01
1848          	2.090169e-02	-1.971922e-02	4.062091e-02	9.453472e-03	1.270460e-02	-3.251125e-03	7.977861e-03	-3.017007e-02	-1.138938e-01	2.041451e-01	-1.182126e-02	2.159664e-01
1849          	2.090718e-02	-1.970353e-02	4.061071e-02	9.482407e-03	1.273440e-02	-3.251993e-03	7.993196e-03	-3.015712e-02	-1.138858e-01	2.041272e-01	-1.182218e-02	2.159494e-01
1850          	2.091034e-02	-1.968808e-02	4.059843e-02	9.512959e-03	1.276548e-02	-3.252518e-03	8.008998e-03	-3.014326e-02	-1.138763e-01	2.041073e-01	-1.182268e-02	2.159300e-01
1851          	2.091148e-02	-1.967335e-02	4.058482e-02	9.543938e-03	1.279668e-02	-3.252742e-03	8.024711e-03	-3.012909e-02	-1.138660e-01	2.040865e-01	-1.182280e-02	2.159093e-01
1852          	2.091049e-02	-1.965963e-02	4.057012e-02	9.574919e-03	1.282757e-02	-3.252653e-03	8.040112e-03	-3.011487e-02	-1.138552e-01	2.040654e-01	-1.182246e-02	2.158879e-01
1853          	2.090785e-02	-1.964712e-02	4.055498e-02	9.604863e-03	1.285719e-02	-3.252323e-03	8.054755e-03	-3.010105e-02	-1.138440e-01	2.040445e-01	-1.182174e-02	2.158662e-01
1854          	2.090289e-02	-1.963618e-02	4.053907e-02	9.633780e-03	1.288544e-02	-3.251663e-03	8.068553e-03	-3.008763e-02	-1.138322e-01	2.040236e-01	-1.182037e-02	2.158440e-01
1855          	2.089587e-02	-1.962684e-02	4.052271e-02	9.661290e-03	1.291199e-02	-3.250705e-03	8.081350e-03	-3.007478e-02	-1.138199e-01	2.040031e-01	-1.181835e-02	2.158214e-01
1856          	2.088645e-02	-1.961939e-02	4.050584e-02	9.687166e-03	1.293657e-02	-3.249399e-03	8.092982e-03	-3.006262e-02	-1.138069e-01	2.039828e-01	-1.181553e-02	2.157983e-01
1857          	2.087493e-02	-1.961360e-02	4.048853e-02	9.711187e-03	1.295897e-02	-3.247781e-03	8.103374e-03	-3.005107e-02	-1.137927e-01	2.039614e-01	-1.181195e-02	2.157734e-01
1858          	2.086168e-02	-1.960953e-02	4.047121e-02	9.733051e-03	1.297896e-02	-3.245912e-03	8.112438e-03	-3.004037e-02	-1.137776e-01	2.039398e-01	-1.180771e-02	2.157475e-01
1859          	2.084816e-02	-1.960649e-02	4.045465e-02	9.751968e-03	1.299597e-02	-3.244005e-03	8.119989e-03	-3.003057e-02	-1.137611e-01	2.039156e-01	-1.180329e-02	2.157189e-01
1860          	2.083553e-02	-1.960438e-02	4.043991e-02	9.767201e-03	1.300942e-02	-3.242218e-03	8.125818e-03	-3.002215e-02	-1.137441e-01	2.038901e-01	-1.179903e-02	2.156891e-01
1861          	2.082419e-02	-1.960303e-02	4.042721e-02	9.778827e-03	1.301943e-02	-3.240604e-03	8.130018e-03	-3.001512e-02	-1.137270e-01	2.038640e-01	-1.179503e-02	2.156590e-01
1862          	2.081431e-02	-1.960264e-02	4.041695e-02	9.786830e-03	1.302601e-02	-3.239185e-03	8.132600e-03	-3.000979e-02	-1.137112e-01	2.038399e-01	-1.179132e-02	2.156312e-01
1863          	2.080595e-02	-1.960303e-02	4.040898e-02	9.791016e-03	1.302898e-02	-3.237967e-03	8.133475e-03	-3.000601e-02	-1.136961e-01	2.038163e-01	-1.178795e-02	2.156042e-01
1864          	2.080040e-02	-1.960429e-02	4.040469e-02	9.789786e-03	1.302693e-02	-3.237144e-03	8.132037e-03	-3.000449e-02	-1.136824e-01	2.037939e-01	-1.178540e-02	2.155793e-01
1865          	2.079790e-02	-1.960614e-02	4.040403e-02	9.783075e-03	1.301983e-02	-3.236752e-03	8.128289e-03	-3.000509e-02	-1.136697e-01	2.037718e-01	-1.178381e-02	2.155556e-01
1866          	2.079789e-02	-1.960879e-02	4.040668e-02	9.771144e-03	1.300786e-02	-3.236714e-03	8.122286e-03	-3.000774e-02	-1.136582e-01	2.037503e-01	-1.178304e-02	2.155333e-01
1867          	2.079981e-02	-1.961199e-02	4.041180e-02	9.754628e-03	1.299157e-02	-3.236944e-03	8.114258e-03	-3.001189e-02	-1.136466e-01	2.037271e-01	-1.178300e-02	2.155101e-01
1868          	2.080297e-02	-1.961590e-02	4.041886e-02	9.733799e-03	1.297114e-02	-3.237346e-03	8.104245e-03	-3.001738e-02	-1.136345e-01	2.037020e-01	-1.178351e-02	2.154855e-01
1869          	2.080652e-02	-1.962053e-02	4.042705e-02	9.709416e-03	1.294722e-02	-3.237804e-03	8.092511e-03	-3.002379e-02	-1.136215e-01	2.036742e-01	-1.178435e-02	2.154586e-01
1870          	2.080980e-02	-1.962619e-02	4.043599e-02	9.681738e-03	1.291997e-02	-3.238230e-03	8.079099e-03	-3.003109e-02	-1.136079e-01	2.036451e-01	-1.178534e-02	2.154304e-01
1871          	2.081170e-02	-1.963281e-02	4.044451e-02	9.652041e-03	1.289051e-02	-3.238467e-03	8.064487e-03	-3.003866e-02	-1.135931e-01	2.036138e-01	-1.178617e-02	2.154000e-01
1872          	2.081144e-02	-1.964049e-02	4.045193e-02	9.621126e-03	1.285953e-02	-3.238402e-03	8.048965e-03	-3.004621e-02	-1.135770e-01	2.035808e-01	-1.178657e-02	2.153674e-01
1873          	2.080814e-02	-1.964914e-02	4.045729e-02	9.590140e-03	1.282805e-02	-3.237910e-03	8.032980e-03	-3.005321e-02	-1.135589e-01	2.035453e-01	-1.178629e-02	2.153316e-01
1874          	2.080210e-02	-1.965884e-02	4.046094e-02	9.558448e-03	1.279548e-02	-3.237034e-03	8.016259e-03	-3.005989e-02	-1.135391e-01	2.035072e-01	-1.178544e-02	2.152927e-01
1875          	2.079364e-02	-1.966956e-02	4.046320e-02	9.525636e-03	1.276147e-02	-3.235833e-03	7.998651e-03	-3.006638e-02	-1.135175e-01	2.034667e-01	-1.178415e-02	2.152509e-01
1876          	2.078315e-02	-1.968116e-02	4.046430e-02	9.492177e-03	1.272655e-02	-3.234368e-03	7.980456e-03	-3.007273e-02	-1.134954e-01	2.034257e-01	-1.178250e-02	2.152082e-01
1877          	2.077031e-02	-1.969347e-02	4.046378e-02	9.459037e-03	1.269164e-02	-3.232599e-03	7.962117e-03	-3.007863e-02	-1.134726e-01	2.033844e-01	-1.178040e-02	2.151648e-01
1878          	2.075587e-02	-1.970637e-02	4.046224e-02	9.425996e-03	1.265662e-02	-3.230626e-03	7.943624e-03	-3.008431e-02	-1.134499e-01	2.033436e-01	-1.177805e-02	2.151217e-01
1879          	2.073996e-02	-1.971954e-02	4.045950e-02	9.393549e-03	1.262200e-02	-3.228453e-03	7.925227e-03	-3.008952e-02	-1.134267e-01	2.033025e-01	-1.177548e-02	2.150780e-01
1880          	2.072316e-02	-1.973311e-02	4.045627e-02	9.360608e-03	1.258677e-02	-3.226162e-03	7.906466e-03	-3.009469e-02	-1.134033e-01	2.032609e-01	-1.177287e-02	2.150338e-01
1881          	2.070419e-02	-1.974709e-02	4.045128e-02	9.328097e-03	1.255167e-02	-3.223578e-03	7.887626e-03	-3.009919e-02	-1.133782e-01	2.032168e-01	-1.176979e-02	2.149866e-01
1882          	2.068308e-02	-1.976172e-02	4.044480e-02	9.296441e-03	1.251714e-02	-3.220700e-03	7.868920e-03	-3.010326e-02	-1.133524e-01	2.031725e-01	-1.176619e-02	2.149387e-01
1883          	2.066019e-02	-1.977654e-02	4.043673e-02	9.265953e-03	1.248352e-02	-3.217567e-03	7.850543e-03	-3.010664e-02	-1.133255e-01	2.031268e-01	-1.176216e-02	2.148889e-01
1884          	2.063600e-02	-1.979173e-02	4.042773e-02	9.236083e-03	1.245032e-02	-3.214232e-03	7.832274e-03	-3.010973e-02	-1.132981e-01	2.030805e-01	-1.175783e-02	2.148383e-01
1885          	2.061096e-02	-1.980677e-02	4.041774e-02	9.206812e-03	1.241756e-02	-3.210749e-03	7.814154e-03	-3.011226e-02	-1.132690e-01	2.030314e-01	-1.175329e-02	2.147846e-01
1886          	2.058566e-02	-1.982149e-02	4.040715e-02	9.178171e-03	1.238537e-02	-3.207200e-03	7.796285e-03	-3.011432e-02	-1.132386e-01	2.029797e-01	-1.174873e-02	2.147284e-01
1887          	2.056008e-02	-1.983535e-02	4.039543e-02	9.150760e-03	1.235435e-02	-3.203593e-03	7.778973e-03	-3.011539e-02	-1.132057e-01	2.029232e-01	-1.174409e-02	2.146673e-01
1888          	2.053558e-02	-1.984809e-02	4.038367e-02	9.124823e-03	1.232494e-02	-3.200115e-03	7.762526e-03	-3.011588e-02	-1.131723e-01	2.028653e-01	-1.173972e-02	2.146050e-01
1889          	2.051233e-02	-1.985892e-02	4.037125e-02	9.101668e-03	1.229846e-02	-3.196791e-03	7.747625e-03	-3.011509e-02	-1.131376e-01	2.028038e-01	-1.173566e-02	2.145395e-01
1890          	2.049070e-02	-1.986746e-02	4.035816e-02	9.082506e-03	1.227618e-02	-3.193674e-03	7.734927e-03	-3.011281e-02	-1.131020e-01	2.027402e-01	-1.173196e-02	2.144721e-01
1891          	2.047175e-02	-1.987314e-02	4.034489e-02	9.067508e-03	1.225842e-02	-3.190914e-03	7.724668e-03	-3.010902e-02	-1.130662e-01	2.026747e-01	-1.172888e-02	2.144036e-01
1892          	2.045529e-02	-1.987595e-02	4.033123e-02	9.057303e-03	1.224580e-02	-3.188499e-03	7.717151e-03	-3.010359e-02	-1.130304e-01	2.026082e-01	-1.172629e-02	2.143345e-01
1893          	2.044192e-02	-1.987548e-02	4.031740e-02	9.052384e-03	1.223889e-02	-3.186509e-03	7.712702e-03	-3.009644e-02	-1.129950e-01	2.025413e-01	-1.172430e-02	2.142656e-01
1894          	2.043228e-02	-1.987140e-02	4.030368e-02	9.054015e-03	1.223903e-02	-3.185020e-03	7.712027e-03	-3.008754e-02	-1.129615e-01	2.024770e-01	-1.172304e-02	2.142000e-01
1895          	2.042605e-02	-1.986352e-02	4.028957e-02	9.062847e-03	1.224683e-02	-3.183986e-03	7.715410e-03	-3.007655e-02	-1.129296e-01	2.024145e-01	-1.172235e-02	2.141368e-01
1896          	2.042406e-02	-1.985164e-02	4.027570e-02	9.078565e-03	1.226209e-02	-3.183530e-03	7.722812e-03	-3.006367e-02	-1.128996e-01	2.023542e-01	-1.172246e-02	2.140767e-01
1897          	2.042682e-02	-1.983555e-02	4.026237e-02	9.101245e-03	1.228498e-02	-3.183738e-03	7.734361e-03	-3.004896e-02	-1.128719e-01	2.022968e-01	-1.172351e-02	2.140203e-01
1898          	2.043422e-02	-1.981533e-02	4.024954e-02	9.131199e-03	1.231580e-02	-3.184605e-03	7.750204e-03	-3.003244e-02	-1.128470e-01	2.022431e-01	-1.172546e-02	2.139686e-01
1899          	2.044699e-02	-1.979074e-02	4.023774e-02	9.167847e-03	1.235406e-02	-3.186218e-03	7.770141e-03	-3.001424e-02	-1.128249e-01	2.021928e-01	-1.172853e-02	2.139213e-01
1900          	2.046613e-02	-1.976237e-02	4.022850e-02	9.209573e-03	1.239830e-02	-3.188728e-03	7.793515e-03	-2.999543e-02	-1.128074e-01	2.021487e-01	-1.173307e-02	2.138818e-01
1901          	2.049191e-02	-1.973017e-02	4.022207e-02	9.255080e-03	1.244726e-02	-3.192181e-03	7.819721e-03	-2.997612e-02	-1.127935e-01	2.021085e-01	-1.173923e-02	2.138477e-01
1902          	2.052553e-02	-1.969399e-02	4.021952e-02	9.303887e-03	1.250064e-02	-3.196753e-03	7.848696e-03	-2.995676e-02	-1.127842e-01	2.020735e-01	-1.174750e-02	2.138210e-01
1903          	2.056677e-02	-1.965374e-02	4.022051e-02	9.355726e-03	1.255813e-02	-3.202407e-03	7.880270e-03	-2.993713e-02	-1.127787e-01	2.020417e-01	-1.175785e-02	2.137995e-01
1904          	2.061478e-02	-1.961034e-02	4.022512e-02	9.410074e-03	1.261909e-02	-3.209019e-03	7.914056e-03	-2.991773e-02	-1.127776e-01	2.020150e-01	-1.177006e-02	2.137851e-01
1905          	2.066830e-02	-1.956473e-02	4.023303e-02	9.465562e-03	1.268197e-02	-3.216410e-03	7.949191e-03	-2.989888e-02	-1.127802e-01	2.019929e-01	-1.178373e-02	2.137766e-01
1906          	2.072600e-02	-1.951808e-02	4.024407e-02	9.521104e-03	1.274549e-02	-3.224387e-03	7.984939e-03	-2.988108e-02	-1.127867e-01	2.019764e-01	-1.179847e-02	2.137748e-01
1907          	2.078636e-02	-1.947108e-02	4.025744e-02	9.576060e-03	1.280879e-02	-3.232734e-03	8.020764e-03	-2.986426e-02	-1.127961e-01	2.019644e-01	-1.181391e-02	2.137783e-01
1908          	2.084816e-02	-1.942433e-02	4.027249e-02	9.630093e-03	1.287137e-02	-3.241274e-03	8.056321e-03	-2.984841e-02	-1.128079e-01	2.019562e-01	-1.182979e-02	2.137860e-01
1909          	2.091042e-02	-1.937852e-02	4.028894e-02	9.681722e-03	1.293159e-02	-3.249872e-03	8.090733e-03	-2.983373e-02	-1.128210e-01	2.019503e-01	-1.184590e-02	2.137962e-01
1910          	2.097292e-02	-1.933396e-02	4.030688e-02	9.730024e-03	1.298853e-02	-3.258510e-03	8.123522e-03	-2.982042e-02	-1.128356e-01	2.019466e-01	-1.186231e-02	2.138089e-01
1911          	2.103602e-02	-1.929071e-02	4.032674e-02	9.773636e-03	1.304089e-02	-3.267252e-03	8.154070e-03	-2.980873e-02	-1.128514e-01	2.019442e-01	-1.187930e-02	2.138235e-01
1912          	2.109947e-02	-1.924905e-02	4.034852e-02	9.811737e-03	1.308781e-02	-3.276069e-03	8.181937e-03	-2.979879e-02	-1.128682e-01	2.019424e-01	-1.189699e-02	2.138394e-01
1913          	2.116404e-02	-1.920884e-02	4.037288e-02	9.842748e-03	1.312783e-02	-3.285081e-03	8.206455e-03	-2.979086e-02	-1.128857e-01	2.019397e-01	-1.191580e-02	2.138555e-01
1914          	2.122959e-02	-1.917080e-02	4.040039e-02	9.865055e-03	1.315933e-02	-3.294277e-03	8.226805e-03	-2.978560e-02	-1.129043e-01	2.019369e-01	-1.193582e-02	2.138727e-01
1915          	2.129441e-02	-1.913527e-02	4.042968e-02	9.878987e-03	1.318241e-02	-3.303420e-03	8.242913e-03	-2.978248e-02	-1.129220e-01	2.019308e-01	-1.195655e-02	2.138874e-01
1916          	2.135671e-02	-1.910296e-02	4.045967e-02	9.884641e-03	1.319690e-02	-3.312259e-03	8.254580e-03	-2.978131e-02	-1.129375e-01	2.019201e-01	-1.197746e-02	2.138976e-01
1917          	2.141359e-02	-1.907434e-02	4.048793e-02	9.883554e-03	1.320393e-02	-3.320379e-03	8.262156e-03	-2.978113e-02	-1.129483e-01	2.019014e-01	-1.199757e-02	2.138990e-01
1918          	2.146218e-02	-1.905025e-02	4.051244e-02	9.877188e-03	1.320454e-02	-3.327357e-03	8.265951e-03	-2.978135e-02	-1.129526e-01	2.018736e-01	-1.201578e-02	2.138894e-01
1919          	2.150056e-02	-1.903093e-02	4.053149e-02	9.867256e-03	1.320016e-02	-3.332903e-03	8.266531e-03	-2.978121e-02	-1.129492e-01	2.018357e-01	-1.203131e-02	2.138670e-01
1920          	2.152861e-02	-1.901687e-02	4.054548e-02	9.854281e-03	1.319128e-02	-3.336996e-03	8.264136e-03	-2.978117e-02	-1.129399e-01	2.017922e-01	-1.204382e-02	2.138360e-01
1921          	2.154629e-02	-1.900742e-02	4.055371e-02	9.840614e-03	1.318025e-02	-3.339633e-03	8.259940e-03	-2.978057e-02	-1.129253e-01	2.017444e-01	-1.205305e-02	2.137975e-01
1922          	2.155496e-02	-1.900235e-02	4.055731e-02	9.827300e-03	1.316831e-02	-3.341006e-03	8.254656e-03	-2.977983e-02	-1.129083e-01	2.016983e-01	-1.205922e-02	2.137575e-01
1923          	2.155590e-02	-1.900056e-02	4.055645e-02	9.816209e-03	1.315749e-02	-3.341281e-03	8.249385e-03	-2.977850e-02	-1.128904e-01	2.016556e-01	-1.206256e-02	2.137182e-01
1924          	2.155065e-02	-1.900186e-02	4.055251e-02	9.807090e-03	1.314775e-02	-3.340660e-03	8.244205e-03	-2.977718e-02	-1.128735e-01	2.016199e-01	-1.206354e-02	2.136834e-01
1925          	2.154054e-02	-1.900529e-02	4.054582e-02	9.800693e-03	1.314002e-02	-3.339323e-03	8.239670e-03	-2.977556e-02	-1.128579e-01	2.015907e-01	-1.206259e-02	2.136533e-01
1926          	2.152733e-02	-1.901072e-02	4.053805e-02	9.795447e-03	1.313298e-02	-3.337529e-03	8.235253e-03	-2.977439e-02	-1.128448e-01	2.015689e-01	-1.206039e-02	2.136293e-01
1927          	2.151197e-02	-1.901739e-02	4.052936e-02	9.791332e-03	1.312675e-02	-3.335419e-03	8.231085e-03	-2.977337e-02	-1.128334e-01	2.015520e-01	-1.205738e-02	2.136094e-01
1928          	2.149544e-02	-1.902499e-02	4.052043e-02	9.787354e-03	1.312048e-02	-3.333131e-03	8.226808e-03	-2.977271e-02	-1.128233e-01	2.015385e-01	-1.205402e-02	2.135925e-01
1929          	2.147853e-02	-1.903296e-02	4.051149e-02	9.783636e-03	1.311441e-02	-3.330771e-03	8.222588e-03	-2.977223e-02	-1.128141e-01	2.015267e-01	-1.205070e-02	2.135774e-01
1930          	2.146156e-02	-1.904096e-02	4.050252e-02	9.780169e-03	1.310854e-02	-3.328370e-03	8.218455e-03	-2.977174e-02	-1.128051e-01	2.015149e-01	-1.204760e-02	2.135625e-01
1931          	2.144509e-02	-1.904868e-02	4.049377e-02	9.776548e-03	1.310257e-02	-3.326021e-03	8.214295e-03	-2.977122e-02	-1.127957e-01	2.015014e-01	-1.204497e-02	2.135464e-01
1932          	2.142928e-02	-1.905602e-02	4.048530e-02	9.772582e-03	1.309634e-02	-3.323760e-03	8.210050e-03	-2.977066e-02	-1.127856e-01	2.014854e-01	-1.204291e-02	2.135283e-01
1933          	2.141399e-02	-1.906281e-02	4.047680e-02	9.768693e-03	1.309026e-02	-3.321569e-03	8.205916e-03	-2.976980e-02	-1.127744e-01	2.014660e-01	-1.204134e-02	2.135074e-01
1934          	2.139874e-02	-1.906903e-02	4.046777e-02	9.765584e-03	1.308497e-02	-3.319385e-03	8.202177e-03	-2.976840e-02	-1.127617e-01	2.014431e-01	-1.204010e-02	2.134832e-01
1935          	2.138299e-02	-1.907486e-02	4.045785e-02	9.763596e-03	1.308071e-02	-3.317118e-03	8.198916e-03	-2.976636e-02	-1.127474e-01	2.014170e-01	-1.203892e-02	2.134559e-01
1936          	2.136680e-02	-1.908043e-02	4.044723e-02	9.762456e-03	1.307724e-02	-3.314785e-03	8.196013e-03	-2.976383e-02	-1.127320e-01	2.013884e-01	-1.203777e-02	2.134261e-01
1937          	2.135068e-02	-1.908601e-02	4.043669e-02	9.761085e-03	1.307355e-02	-3.312467e-03	8.193009e-03	-2.976135e-02	-1.127161e-01	2.013588e-01	-1.203672e-02	2.133955e-01
1938          	2.133414e-02	-1.909175e-02	4.042589e-02	9.759943e-03	1.307004e-02	-3.310102e-03	8.190074e-03	-2.975882e-02	-1.127001e-01	2.013291e-01	-1.203553e-02	2.133646e-01
1939          	2.131644e-02	-1.909807e-02	4.041451e-02	9.758837e-03	1.306642e-02	-3.307587e-03	8.187006e-03	-2.975629e-02	-1.126837e-01	2.012996e-01	-1.203386e-02	2.133335e-01
1940          	2.129730e-02	-1.910536e-02	4.040267e-02	9.757657e-03	1.306254e-02	-3.304881e-03	8.183710e-03	-2.975401e-02	-1.126675e-01	2.012719e-01	-1.203151e-02	2.133034e-01
1941          	2.127710e-02	-1.911386e-02	4.039096e-02	9.755740e-03	1.305777e-02	-3.302033e-03	8.179903e-03	-2.975241e-02	-1.126524e-01	2.012479e-01	-1.202847e-02	2.132763e-01
1942          	2.125701e-02	-1.912377e-02	4.038078e-02	9.752082e-03	1.305129e-02	-3.299212e-03	8.175252e-03	-2.975228e-02	-1.126404e-01	2.012308e-01	-1.202501e-02	2.132558e-01
1943          	2.123683e-02	-1.913498e-02	4.037182e-02	9.747069e-03	1.304346e-02	-3.296390e-03	8.169925e-03	-2.975340e-02	-1.126311e-01	2.012203e-01	-1.202098e-02	2.132413e-01
1944          	2.121652e-02	-1.914753e-02	4.036405e-02	9.741132e-03	1.303470e-02	-3.293563e-03	8.164129e-03	-2.975579e-02	-1.126251e-01	2.012175e-01	-1.201630e-02	2.132338e-01
1945          	2.119584e-02	-1.916139e-02	4.035723e-02	9.734394e-03	1.302509e-02	-3.290699e-03	8.157896e-03	-2.975931e-02	-1.126217e-01	2.012217e-01	-1.201083e-02	2.132325e-01
1946          	2.117516e-02	-1.917646e-02	4.035162e-02	9.727182e-03	1.301503e-02	-3.287847e-03	8.151438e-03	-2.976404e-02	-1.126218e-01	2.012342e-01	-1.200468e-02	2.132389e-01
1947          	2.115441e-02	-1.919261e-02	4.034701e-02	9.719513e-03	1.300451e-02	-3.284996e-03	8.144753e-03	-2.976981e-02	-1.126248e-01	2.012540e-01	-1.199781e-02	2.132518e-01
1948          	2.113372e-02	-1.920962e-02	4.034334e-02	9.711992e-03	1.299416e-02	-3.282165e-03	8.138161e-03	-2.977648e-02	-1.126311e-01	2.012815e-01	-1.199032e-02	2.132718e-01
1949          	2.111299e-02	-1.922705e-02	4.034004e-02	9.705304e-03	1.298464e-02	-3.279336e-03	8.131988e-03	-2.978354e-02	-1.126395e-01	2.013146e-01	-1.198223e-02	2.132968e-01
1950          	2.109189e-02	-1.924429e-02	4.033619e-02	9.700739e-03	1.297720e-02	-3.276463e-03	8.126833e-03	-2.979024e-02	-1.126492e-01	2.013512e-01	-1.197355e-02	2.133248e-01
1951          	2.107124e-02	-1.926086e-02	4.033210e-02	9.698396e-03	1.297206e-02	-3.273660e-03	8.122858e-03	-2.979648e-02	-1.126601e-01	2.013909e-01	-1.196465e-02	2.133555e-01
1952          	2.105124e-02	-1.927621e-02	4.032746e-02	9.698656e-03	1.296961e-02	-3.270955e-03	8.120283e-03	-2.980183e-02	-1.126716e-01	2.014317e-01	-1.195573e-02	2.133875e-01
1953          	2.103287e-02	-1.929023e-02	4.032310e-02	9.700930e-03	1.296941e-02	-3.268481e-03	8.118946e-03	-2.980666e-02	-1.126846e-01	2.014749e-01	-1.194716e-02	2.134220e-01
1954          	2.101584e-02	-1.930259e-02	4.031843e-02	9.705912e-03	1.297211e-02	-3.266198e-03	8.119154e-03	-2.981051e-02	-1.126984e-01	2.015188e-01	-1.193900e-02	2.134578e-01
1955          	2.100071e-02	-1.931320e-02	4.031391e-02	9.712972e-03	1.297715e-02	-3.264182e-03	8.120668e-03	-2.981356e-02	-1.127132e-01	2.015634e-01	-1.193154e-02	2.134950e-01
1956          	2.098702e-02	-1.932189e-02	4.030891e-02	9.722432e-03	1.298480e-02	-3.262369e-03	8.123585e-03	-2.981540e-02	-1.127281e-01	2.016066e-01	-1.192478e-02	2.135313e-01
1957          	2.097463e-02	-1.932900e-02	4.030363e-02	9.733538e-03	1.299427e-02	-3.260735e-03	8.127504e-03	-2.981631e-02	-1.127430e-01	2.016484e-01	-1.191874e-02	2.135672e-01
1958          	2.096265e-02	-1.933475e-02	4.029740e-02	9.746229e-03	1.300538e-02	-3.259153e-03	8.132268e-03	-2.981607e-02	-1.127569e-01	2.016873e-01	-1.191323e-02	2.136006e-01
1959          	2.095106e-02	-1.933962e-02	4.029068e-02	9.759757e-03	1.301738e-02	-3.257619e-03	8.137498e-03	-2.981515e-02	-1.127706e-01	2.017246e-01	-1.190829e-02	2.136329e-01
1960          	2.093904e-02	-1.934381e-02	4.028284e-02	9.773973e-03	1.302999e-02	-3.256016e-03	8.143003e-03	-2.981332e-02	-1.127829e-01	2.017584e-01	-1.190371e-02	2.136621e-01
1961          	2.092641e-02	-1.934787e-02	4.027429e-02	9.788157e-03	1.304248e-02	-3.254322e-03	8.148400e-03	-2.981108e-02	-1.127945e-01	2.017901e-01	-1.189945e-02	2.136896e-01
1962          	2.091265e-02	-1.935206e-02	4.026470e-02	9.802128e-03	1.305459e-02	-3.252459e-03	8.153523e-03	-2.980838e-02	-1.128048e-01	2.018190e-01	-1.189530e-02	2.137143e-01
1963          	2.089737e-02	-1.935702e-02	4.025439e-02	9.815109e-03	1.306548e-02	-3.250374e-03	8.157929e-03	-2.980571e-02	-1.128144e-01	2.018465e-01	-1.189108e-02	2.137376e-01
1964          	2.088037e-02	-1.936301e-02	4.024338e-02	9.826735e-03	1.307477e-02	-3.248038e-03	8.161406e-03	-2.980320e-02	-1.128229e-01	2.018725e-01	-1.188665e-02	2.137592e-01
1965          	2.086109e-02	-1.937054e-02	4.023163e-02	9.837010e-03	1.308238e-02	-3.245372e-03	8.163877e-03	-2.980108e-02	-1.128309e-01	2.018984e-01	-1.188173e-02	2.137801e-01
1966          	2.083922e-02	-1.937989e-02	4.021910e-02	9.845633e-03	1.308797e-02	-3.242333e-03	8.165150e-03	-2.979949e-02	-1.128381e-01	2.019240e-01	-1.187615e-02	2.138001e-01