# Force and moment coefficients
# dragDir     : (1.000000e+00 0.000000e+00 0.000000e+00)
# sideDir     : (0.000000e+00 1.000000e+00 0.000000e+00)
# liftDir     : (0.000000e+00 0.000000e+00 1.000000e+00)
# rollAxis    : (1.000000e+00 0.000000e+00 0.000000e+00)
# pitchAxis   : (0.000000e+00 1.000000e+00 0.000000e+00)
# yawAxis     : (0.000000e+00 0.000000e+00 1.000000e+00)
# magUInf     : 1.750000e+01
# lRef        : 1.854000e+00
# Aref        : 6.650000e-01
# CofR        : (0.000000e+00 0.000000e+00 0.000000e+00)
#
# Time        	Cd            	Cd(f)         	Cd(r)         	Cl            	Cl(f)         	Cl(r)         	CmPitch       	CmRoll        	CmYaw         	Cs            	Cs(f)         	Cs(r)         
1801          	1.017130e-01	-1.675179e-01	2.692308e-01	-7.686418e-03	-6.293573e-02	5.524931e-02	-5.909252e-02	-2.183743e-01	5.780439e-02	5.752418e-01	3.454253e-01	2.298165e-01
1802          	1.011006e-01	-1.679874e-01	2.690880e-01	-8.042806e-03	-6.327495e-02	5.523214e-02	-5.925355e-02	-2.185377e-01	5.801371e-02	5.757557e-01	3.458915e-01	2.298641e-01
1803          	1.004851e-01	-1.684627e-01	2.689478e-01	-8.402207e-03	-6.362579e-02	5.522358e-02	-5.942469e-02	-2.187053e-01	5.822912e-02	5.762701e-01	3.463642e-01	2.299060e-01
1804          	9.986634e-02	-1.689431e-01	2.688094e-01	-8.759806e-03	-6.397910e-02	5.521929e-02	-5.959920e-02	-2.188763e-01	5.844721e-02	5.767901e-01	3.468422e-01	2.299478e-01
1805          	9.924805e-02	-1.694355e-01	2.686836e-01	-9.149093e-03	-6.435459e-02	5.520550e-02	-5.978005e-02	-2.190595e-01	5.867104e-02	5.773367e-01	3.473394e-01	2.299973e-01
1806          	9.863318e-02	-1.699346e-01	2.685677e-01	-9.585605e-03	-6.475073e-02	5.516513e-02	-5.995793e-02	-2.192511e-01	5.889819e-02	5.778976e-01	3.478470e-01	2.300506e-01
1807          	9.802490e-02	-1.704406e-01	2.684655e-01	-1.007928e-02	-6.517625e-02	5.509697e-02	-6.013661e-02	-2.194531e-01	5.912869e-02	5.784748e-01	3.483661e-01	2.301087e-01
1808          	9.742316e-02	-1.709444e-01	2.683675e-01	-1.061440e-02	-6.561331e-02	5.499891e-02	-6.030611e-02	-2.196560e-01	5.935559e-02	5.790443e-01	3.488777e-01	2.301665e-01
1809          	9.682995e-02	-1.714421e-01	2.682720e-01	-1.117369e-02	-6.605944e-02	5.488574e-02	-6.047259e-02	-2.198571e-01	5.957963e-02	5.796027e-01	3.493810e-01	2.302217e-01
1810          	9.624720e-02	-1.719230e-01	2.681702e-01	-1.173881e-02	-6.650077e-02	5.476196e-02	-6.063137e-02	-2.200466e-01	5.979266e-02	5.801254e-01	3.498553e-01	2.302700e-01
1811          	9.567293e-02	-1.723897e-01	2.680626e-01	-1.229763e-02	-6.693418e-02	5.463655e-02	-6.078536e-02	-2.202262e-01	5.999415e-02	5.806227e-01	3.503055e-01	2.303172e-01
1812          	9.510992e-02	-1.728363e-01	2.679462e-01	-1.285293e-02	-6.735266e-02	5.449973e-02	-6.092620e-02	-2.203913e-01	6.017761e-02	5.810797e-01	3.507175e-01	2.303622e-01
1813          	9.455326e-02	-1.732698e-01	2.678231e-01	-1.340223e-02	-6.775718e-02	5.435495e-02	-6.105607e-02	-2.205464e-01	6.034225e-02	5.815084e-01	3.510965e-01	2.304120e-01
1814          	9.400423e-02	-1.736781e-01	2.676823e-01	-1.390712e-02	-6.813106e-02	5.422394e-02	-6.117750e-02	-2.206802e-01	6.048124e-02	5.818878e-01	3.514251e-01	2.304626e-01
1815          	9.346242e-02	-1.740594e-01	2.675218e-01	-1.435322e-02	-6.847356e-02	5.412034e-02	-6.129695e-02	-2.207906e-01	6.059747e-02	5.822094e-01	3.517021e-01	2.305072e-01
1816          	9.293134e-02	-1.744074e-01	2.673387e-01	-1.470850e-02	-6.877497e-02	5.406647e-02	-6.142072e-02	-2.208731e-01	6.069536e-02	5.824697e-01	3.519302e-01	2.305395e-01
1817          	9.241034e-02	-1.747258e-01	2.671361e-01	-1.496980e-02	-6.903713e-02	5.406732e-02	-6.155222e-02	-2.209310e-01	6.077574e-02	5.826767e-01	3.521141e-01	2.305626e-01
1818          	9.189979e-02	-1.750149e-01	2.669147e-01	-1.512793e-02	-6.926377e-02	5.413584e-02	-6.169980e-02	-2.209648e-01	6.084120e-02	5.828348e-01	3.522586e-01	2.305762e-01
1819          	9.140034e-02	-1.752721e-01	2.666724e-01	-1.517671e-02	-6.945741e-02	5.428070e-02	-6.186906e-02	-2.209723e-01	6.089342e-02	5.829365e-01	3.523616e-01	2.305748e-01
1820          	9.091469e-02	-1.754966e-01	2.664113e-01	-1.513800e-02	-6.963072e-02	5.449272e-02	-6.206172e-02	-2.209539e-01	6.093388e-02	5.829773e-01	3.524225e-01	2.305548e-01
1821          	9.043831e-02	-1.756975e-01	2.661359e-01	-1.498131e-02	-6.976998e-02	5.478866e-02	-6.227932e-02	-2.209167e-01	6.096356e-02	5.829865e-01	3.524568e-01	2.305297e-01
1822          	8.996989e-02	-1.758805e-01	2.658503e-01	-1.475133e-02	-6.989348e-02	5.514215e-02	-6.251782e-02	-2.208654e-01	6.098388e-02	5.829637e-01	3.524657e-01	2.304980e-01
1823          	8.950386e-02	-1.760467e-01	2.655506e-01	-1.444455e-02	-7.000331e-02	5.555876e-02	-6.278103e-02	-2.207987e-01	6.099970e-02	5.829016e-01	3.524505e-01	2.304511e-01
1824          	8.903964e-02	-1.762026e-01	2.652423e-01	-1.409322e-02	-7.011261e-02	5.601939e-02	-6.306600e-02	-2.207225e-01	6.101497e-02	5.828070e-01	3.524185e-01	2.303885e-01
1825          	8.855904e-02	-1.763666e-01	2.649256e-01	-1.367208e-02	-7.021397e-02	5.654189e-02	-6.337793e-02	-2.206461e-01	6.103008e-02	5.827142e-01	3.523872e-01	2.303270e-01
1826          	8.807050e-02	-1.765387e-01	2.646092e-01	-1.323092e-02	-7.032476e-02	5.709384e-02	-6.370930e-02	-2.205740e-01	6.105119e-02	5.826156e-01	3.523590e-01	2.302566e-01
1827          	8.756426e-02	-1.767215e-01	2.642857e-01	-1.275979e-02	-7.044364e-02	5.768384e-02	-6.406374e-02	-2.205036e-01	6.107994e-02	5.825063e-01	3.523331e-01	2.301732e-01
1828          	8.704154e-02	-1.769212e-01	2.639627e-01	-1.226277e-02	-7.056744e-02	5.830468e-02	-6.443606e-02	-2.204419e-01	6.111341e-02	5.824085e-01	3.523176e-01	2.300908e-01
1829          	8.650141e-02	-1.771366e-01	2.636380e-01	-1.173481e-02	-7.069467e-02	5.895986e-02	-6.482727e-02	-2.203873e-01	6.115003e-02	5.823187e-01	3.523094e-01	2.300093e-01
1830          	8.594748e-02	-1.773643e-01	2.633118e-01	-1.119329e-02	-7.082883e-02	5.963554e-02	-6.523218e-02	-2.203380e-01	6.119064e-02	5.822306e-01	3.523059e-01	2.299247e-01
1831          	8.537213e-02	-1.776096e-01	2.629817e-01	-1.064290e-02	-7.097297e-02	6.033007e-02	-6.565152e-02	-2.202957e-01	6.123167e-02	5.821539e-01	3.523086e-01	2.298453e-01
1832          	8.478585e-02	-1.778691e-01	2.626549e-01	-1.008808e-02	-7.112638e-02	6.103830e-02	-6.608234e-02	-2.202620e-01	6.126938e-02	5.820951e-01	3.523169e-01	2.297782e-01
1833          	8.418848e-02	-1.781433e-01	2.623317e-01	-9.544294e-03	-7.129480e-02	6.175050e-02	-6.652265e-02	-2.202375e-01	6.130395e-02	5.820521e-01	3.523300e-01	2.297221e-01
1834          	8.359621e-02	-1.784260e-01	2.620222e-01	-9.032754e-03	-7.148184e-02	6.244909e-02	-6.696546e-02	-2.202241e-01	6.133610e-02	5.820300e-01	3.523511e-01	2.296789e-01
1835          	8.300584e-02	-1.787162e-01	2.617220e-01	-8.533132e-03	-7.167775e-02	6.314462e-02	-6.741118e-02	-2.202191e-01	6.136081e-02	5.820324e-01	3.523770e-01	2.296554e-01
1836          	8.243395e-02	-1.790062e-01	2.614402e-01	-8.050355e-03	-7.187955e-02	6.382920e-02	-6.785437e-02	-2.202232e-01	6.138273e-02	5.820569e-01	3.524112e-01	2.296457e-01
1837          	8.187254e-02	-1.793008e-01	2.611733e-01	-7.592666e-03	-7.208797e-02	6.449530e-02	-6.829163e-02	-2.202370e-01	6.140048e-02	5.821056e-01	3.524533e-01	2.296523e-01
1838          	8.133278e-02	-1.795961e-01	2.609289e-01	-7.164250e-03	-7.229953e-02	6.513528e-02	-6.871740e-02	-2.202625e-01	6.141675e-02	5.821843e-01	3.525089e-01	2.296754e-01
1839          	8.081130e-02	-1.798929e-01	2.607042e-01	-6.786888e-03	-7.251959e-02	6.573270e-02	-6.912614e-02	-2.202985e-01	6.142840e-02	5.822829e-01	3.525698e-01	2.297130e-01
1840          	8.031592e-02	-1.801897e-01	2.605056e-01	-6.446410e-03	-7.273730e-02	6.629089e-02	-6.951410e-02	-2.203476e-01	6.143912e-02	5.824099e-01	3.526441e-01	2.297658e-01
1841          	7.984094e-02	-1.804884e-01	2.603294e-01	-6.154707e-03	-7.295609e-02	6.680138e-02	-6.987874e-02	-2.204089e-01	6.144764e-02	5.825601e-01	3.527277e-01	2.298324e-01
1842          	7.938824e-02	-1.807876e-01	2.601759e-01	-5.919964e-03	-7.317454e-02	6.725458e-02	-7.021456e-02	-2.204818e-01	6.145742e-02	5.827257e-01	3.528202e-01	2.299054e-01
1843          	7.895000e-02	-1.810864e-01	2.600364e-01	-5.741136e-03	-7.339668e-02	6.765555e-02	-7.052612e-02	-2.205614e-01	6.146565e-02	5.828941e-01	3.529127e-01	2.299814e-01
1844          	7.852656e-02	-1.813796e-01	2.599061e-01	-5.604217e-03	-7.361297e-02	6.800875e-02	-7.081086e-02	-2.206429e-01	6.147419e-02	5.830515e-01	3.530000e-01	2.300516e-01
1845          	7.811325e-02	-1.816679e-01	2.597811e-01	-5.490701e-03	-7.382189e-02	6.833119e-02	-7.107654e-02	-2.207245e-01	6.148520e-02	5.832018e-01	3.530861e-01	2.301157e-01
1846          	7.771467e-02	-1.819447e-01	2.596594e-01	-5.389821e-03	-7.401965e-02	6.862983e-02	-7.132474e-02	-2.208021e-01	6.149888e-02	5.833392e-01	3.531685e-01	2.301707e-01
1847          	7.732908e-02	-1.822140e-01	2.595431e-01	-5.326406e-03	-7.421803e-02	6.889162e-02	-7.155482e-02	-2.208786e-01	6.151565e-02	5.834704e-01	3.532508e-01	2.302195e-01
1848          	7.695080e-02	-1.824771e-01	2.594279e-01	-5.263699e-03	-7.440509e-02	6.914139e-02	-7.177324e-02	-2.209525e-01	6.153483e-02	5.836040e-01	3.533368e-01	2.302672e-01
1849          	7.658004e-02	-1.827352e-01	2.593152e-01	-5.226428e-03	-7.458913e-02	6.936270e-02	-7.197592e-02	-2.210252e-01	6.155622e-02	5.837366e-01	3.534245e-01	2.303121e-01
1850          	7.621345e-02	-1.829871e-01	2.592005e-01	-5.167264e-03	-7.475289e-02	6.958562e-02	-7.216926e-02	-2.210938e-01	6.157992e-02	5.838751e-01	3.535175e-01	2.303576e-01
1851          	7.585086e-02	-1.832398e-01	2.590907e-01	-5.149308e-03	-7.491498e-02	6.976568e-02	-7.234033e-02	-2.211652e-01	6.160627e-02	5.840221e-01	3.536173e-01	2.304048e-01
1852          	7.548445e-02	-1.834971e-01	2.589816e-01	-5.151326e-03	-7.507023e-02	6.991890e-02	-7.249457e-02	-2.212394e-01	6.163477e-02	5.841821e-01	3.537258e-01	2.304563e-01
1853          	7.511962e-02	-1.837554e-01	2.588750e-01	-5.192045e-03	-7.521951e-02	7.002746e-02	-7.262348e-02	-2.213152e-01	6.166552e-02	5.843466e-01	3.538388e-01	2.305078e-01
1854          	7.475387e-02	-1.840111e-01	2.587650e-01	-5.248984e-03	-7.535988e-02	7.011090e-02	-7.273539e-02	-2.213881e-01	6.169392e-02	5.845073e-01	3.539476e-01	2.305597e-01
1855          	7.439616e-02	-1.842574e-01	2.586535e-01	-5.322318e-03	-7.548731e-02	7.016499e-02	-7.282615e-02	-2.214555e-01	6.172045e-02	5.846577e-01	3.540493e-01	2.306084e-01
1856          	7.404158e-02	-1.844940e-01	2.585355e-01	-5.385111e-03	-7.560107e-02	7.021596e-02	-7.290851e-02	-2.215147e-01	6.174367e-02	5.847954e-01	3.541414e-01	2.306540e-01
1857          	7.369917e-02	-1.847183e-01	2.584175e-01	-5.446349e-03	-7.570228e-02	7.025593e-02	-7.297910e-02	-2.215679e-01	6.176294e-02	5.849206e-01	3.542232e-01	2.306974e-01
1858          	7.336114e-02	-1.849328e-01	2.582939e-01	-5.481857e-03	-7.579315e-02	7.031130e-02	-7.305223e-02	-2.216133e-01	6.177525e-02	5.850304e-01	3.542904e-01	2.307399e-01
1859          	7.303236e-02	-1.851346e-01	2.581670e-01	-5.453763e-03	-7.586090e-02	7.040713e-02	-7.313401e-02	-2.216508e-01	6.178127e-02	5.851373e-01	3.543499e-01	2.307874e-01
1860          	7.270544e-02	-1.853233e-01	2.580287e-01	-5.339743e-03	-7.590736e-02	7.056761e-02	-7.323749e-02	-2.216760e-01	6.177756e-02	5.852326e-01	3.543938e-01	2.308387e-01
1861          	7.237680e-02	-1.855060e-01	2.578828e-01	-5.124275e-03	-7.592744e-02	7.080316e-02	-7.336530e-02	-2.216944e-01	6.176965e-02	5.853383e-01	3.544388e-01	2.308995e-01
1862          	7.204544e-02	-1.856842e-01	2.577297e-01	-4.792674e-03	-7.592112e-02	7.112844e-02	-7.352478e-02	-2.217069e-01	6.176013e-02	5.854632e-01	3.544917e-01	2.309715e-01
1863          	7.172111e-02	-1.858519e-01	2.575730e-01	-4.340938e-03	-7.588037e-02	7.153944e-02	-7.370991e-02	-2.217124e-01	6.174945e-02	5.856052e-01	3.545521e-01	2.310532e-01
1864          	7.140172e-02	-1.860126e-01	2.574143e-01	-3.789372e-03	-7.582003e-02	7.203065e-02	-7.392534e-02	-2.217134e-01	6.173721e-02	5.857651e-01	3.546198e-01	2.311454e-01
1865          	7.109737e-02	-1.861614e-01	2.572588e-01	-3.158915e-03	-7.574199e-02	7.258307e-02	-7.416253e-02	-2.217101e-01	6.172505e-02	5.859339e-01	3.546920e-01	2.312419e-01
1866          	7.080546e-02	-1.863051e-01	2.571105e-01	-2.486291e-03	-7.565932e-02	7.317303e-02	-7.441618e-02	-2.217078e-01	6.171444e-02	5.861172e-01	3.547730e-01	2.313442e-01
1867          	7.053253e-02	-1.864405e-01	2.569730e-01	-1.760532e-03	-7.556074e-02	7.380021e-02	-7.468048e-02	-2.217067e-01	6.170772e-02	5.863208e-01	3.548681e-01	2.314527e-01
1868          	7.027262e-02	-1.865770e-01	2.568497e-01	-1.016157e-03	-7.545825e-02	7.444209e-02	-7.495017e-02	-2.217133e-01	6.170759e-02	5.865526e-01	3.549839e-01	2.315687e-01
1869          	7.003017e-02	-1.867123e-01	2.567425e-01	-2.431766e-04	-7.534535e-02	7.510217e-02	-7.522376e-02	-2.217274e-01	6.171521e-02	5.868139e-01	3.551222e-01	2.316918e-01
1870          	6.979794e-02	-1.868541e-01	2.566521e-01	5.212327e-04	-7.523272e-02	7.575395e-02	-7.549333e-02	-2.217531e-01	6.173140e-02	5.871058e-01	3.552843e-01	2.318215e-01
1871          	6.958339e-02	-1.870002e-01	2.565836e-01	1.266727e-03	-7.511840e-02	7.638513e-02	-7.575177e-02	-2.217919e-01	6.175496e-02	5.874319e-01	3.554709e-01	2.319610e-01
1872          	6.938704e-02	-1.871510e-01	2.565380e-01	1.956120e-03	-7.501521e-02	7.697133e-02	-7.599327e-02	-2.218445e-01	6.178454e-02	5.877823e-01	3.556757e-01	2.321066e-01
1873          	6.921496e-02	-1.872994e-01	2.565143e-01	2.612345e-03	-7.491241e-02	7.752476e-02	-7.621858e-02	-2.219068e-01	6.181878e-02	5.881530e-01	3.558953e-01	2.322577e-01
1874          	6.906656e-02	-1.874500e-01	2.565166e-01	3.206844e-03	-7.482115e-02	7.802799e-02	-7.642457e-02	-2.219833e-01	6.185952e-02	5.885471e-01	3.561331e-01	2.324140e-01
1875          	6.894753e-02	-1.875977e-01	2.565453e-01	3.750689e-03	-7.473917e-02	7.848986e-02	-7.661451e-02	-2.220715e-01	6.190505e-02	5.889596e-01	3.563848e-01	2.325747e-01
1876          	6.886025e-02	-1.877432e-01	2.566035e-01	4.227647e-03	-7.467408e-02	7.890173e-02	-7.678791e-02	-2.221734e-01	6.195875e-02	5.893862e-01	3.566518e-01	2.327343e-01
1877          	6.879857e-02	-1.878863e-01	2.566848e-01	4.641567e-03	-7.462493e-02	7.926650e-02	-7.694572e-02	-2.222855e-01	6.201738e-02	5.898205e-01	3.569276e-01	2.328928e-01
1878          	6.877130e-02	-1.880231e-01	2.567944e-01	4.964676e-03	-7.459947e-02	7.956414e-02	-7.708181e-02	-2.224087e-01	6.208389e-02	5.902540e-01	3.572109e-01	2.330431e-01
1879          	6.877341e-02	-1.881486e-01	2.569220e-01	5.239362e-03	-7.457949e-02	7.981885e-02	-7.719917e-02	-2.225353e-01	6.215391e-02	5.906777e-01	3.574927e-01	2.331849e-01
1880          	6.880860e-02	-1.882636e-01	2.570722e-01	5.437951e-03	-7.457148e-02	8.000943e-02	-7.729046e-02	-2.226679e-01	6.222861e-02	5.910878e-01	3.577725e-01	2.333153e-01
1881          	6.887157e-02	-1.883665e-01	2.572381e-01	5.566838e-03	-7.457102e-02	8.013786e-02	-7.735444e-02	-2.228023e-01	6.230220e-02	5.914731e-01	3.580388e-01	2.334344e-01
1882          	6.896184e-02	-1.884569e-01	2.574187e-01	5.657850e-03	-7.456860e-02	8.022645e-02	-7.739752e-02	-2.229378e-01	6.237573e-02	5.918379e-01	3.582947e-01	2.335432e-01
1883          	6.907775e-02	-1.885277e-01	2.576055e-01	5.709716e-03	-7.456121e-02	8.027092e-02	-7.741606e-02	-2.230666e-01	6.244486e-02	5.921582e-01	3.585240e-01	2.336342e-01
1884          	6.922405e-02	-1.885738e-01	2.577979e-01	5.759851e-03	-7.454460e-02	8.030445e-02	-7.742453e-02	-2.231858e-01	6.251147e-02	5.924341e-01	3.587285e-01	2.337056e-01
1885          	6.939642e-02	-1.885984e-01	2.579948e-01	5.770135e-03	-7.453057e-02	8.030070e-02	-7.741564e-02	-2.232966e-01	6.257220e-02	5.926565e-01	3.589004e-01	2.337560e-01
1886          	6.958569e-02	-1.886103e-01	2.581960e-01	5.786224e-03	-7.451786e-02	8.030408e-02	-7.741097e-02	-2.234031e-01	6.262824e-02	5.928539e-01	3.590552e-01	2.337987e-01
1887          	6.979189e-02	-1.886111e-01	2.584029e-01	5.785906e-03	-7.451405e-02	8.029996e-02	-7.740700e-02	-2.235070e-01	6.267799e-02	5.930291e-01	3.591925e-01	2.338366e-01
1888          	7.000851e-02	-1.886011e-01	2.586096e-01	5.805484e-03	-7.452530e-02	8.033078e-02	-7.742804e-02	-2.236053e-01	6.272428e-02	5.931850e-01	3.593168e-01	2.338682e-01
1889          	7.023789e-02	-1.885835e-01	2.588214e-01	5.836017e-03	-7.454751e-02	8.038353e-02	-7.746552e-02	-2.237024e-01	6.276827e-02	5.933328e-01	3.594347e-01	2.338981e-01
1890          	7.046773e-02	-1.885675e-01	2.590352e-01	5.913348e-03	-7.457583e-02	8.048918e-02	-7.753250e-02	-2.238013e-01	6.281222e-02	5.934916e-01	3.595580e-01	2.339336e-01
1891          	7.070307e-02	-1.885580e-01	2.592610e-01	6.026663e-03	-7.460620e-02	8.063286e-02	-7.761953e-02	-2.239095e-01	6.286009e-02	5.936841e-01	3.597021e-01	2.339819e-01
1892          	7.093199e-02	-1.885614e-01	2.594934e-01	6.205061e-03	-7.462684e-02	8.083190e-02	-7.772937e-02	-2.240274e-01	6.291002e-02	5.939173e-01	3.598687e-01	2.340486e-01
1893          	7.116256e-02	-1.885768e-01	2.597394e-01	6.413729e-03	-7.464402e-02	8.105775e-02	-7.785088e-02	-2.241581e-01	6.296614e-02	5.941920e-01	3.600621e-01	2.341298e-01
1894          	7.139260e-02	-1.885933e-01	2.599859e-01	6.666752e-03	-7.465514e-02	8.132189e-02	-7.798852e-02	-2.242896e-01	6.302770e-02	5.944757e-01	3.602656e-01	2.342102e-01
1895          	7.161836e-02	-1.886196e-01	2.602380e-01	6.969233e-03	-7.465236e-02	8.162159e-02	-7.813697e-02	-2.244288e-01	6.309332e-02	5.947933e-01	3.604899e-01	2.343033e-01
1896          	7.184554e-02	-1.886469e-01	2.604925e-01	7.303334e-03	-7.464608e-02	8.194942e-02	-7.829775e-02	-2.245697e-01	6.316198e-02	5.951243e-01	3.607241e-01	2.344002e-01
1897          	7.207709e-02	-1.886669e-01	2.607440e-01	7.671859e-03	-7.463019e-02	8.230205e-02	-7.846612e-02	-2.247055e-01	6.323504e-02	5.954437e-01	3.609569e-01	2.344868e-01
1898          	7.229907e-02	-1.886934e-01	2.609925e-01	8.077682e-03	-7.460581e-02	8.268349e-02	-7.864465e-02	-2.248430e-01	6.330862e-02	5.957744e-01	3.611958e-01	2.345786e-01
1899          	7.251328e-02	-1.887214e-01	2.612347e-01	8.531993e-03	-7.456905e-02	8.310104e-02	-7.883505e-02	-2.249780e-01	6.338520e-02	5.961038e-01	3.614371e-01	2.346667e-01
1900          	7.271677e-02	-1.887467e-01	2.614634e-01	9.029387e-03	-7.452048e-02	8.354987e-02	-7.903517e-02	-2.251050e-01	6.346460e-02	5.964098e-01	3.616695e-01	2.347403e-01
1901          	7.290963e-02	-1.887724e-01	2.616820e-01	9.581396e-03	-7.445649e-02	8.403788e-02	-7.924718e-02	-2.252272e-01	6.354771e-02	5.967030e-01	3.618992e-01	2.348038e-01
1902          	7.308814e-02	-1.888020e-01	2.618901e-01	1.016065e-02	-7.438617e-02	8.454682e-02	-7.946649e-02	-2.253460e-01	6.363418e-02	5.969747e-01	3.621215e-01	2.348531e-01
1903          	7.324813e-02	-1.888311e-01	2.620793e-01	1.081595e-02	-7.429276e-02	8.510871e-02	-7.970074e-02	-2.254552e-01	6.372363e-02	5.972206e-01	3.623339e-01	2.348866e-01
1904          	7.338828e-02	-1.888648e-01	2.622531e-01	1.152064e-02	-7.418105e-02	8.570169e-02	-7.994137e-02	-2.255590e-01	6.381229e-02	5.974462e-01	3.625354e-01	2.349108e-01
1905          	7.351811e-02	-1.888904e-01	2.624085e-01	1.229999e-02	-7.404694e-02	8.634692e-02	-8.019693e-02	-2.256494e-01	6.390296e-02	5.976373e-01	3.627216e-01	2.349157e-01
1906          	7.363271e-02	-1.889180e-01	2.625507e-01	1.309849e-02	-7.390847e-02	8.700696e-02	-8.045772e-02	-2.257344e-01	6.399631e-02	5.978080e-01	3.629003e-01	2.349077e-01
1907          	7.372753e-02	-1.889521e-01	2.626796e-01	1.394177e-02	-7.375898e-02	8.770074e-02	-8.072986e-02	-2.258158e-01	6.409696e-02	5.979739e-01	3.630839e-01	2.348900e-01
1908          	7.380251e-02	-1.889943e-01	2.627968e-01	1.480418e-02	-7.360755e-02	8.841173e-02	-8.100964e-02	-2.258956e-01	6.420453e-02	5.981382e-01	3.632736e-01	2.348646e-01
1909          	7.386118e-02	-1.890438e-01	2.629049e-01	1.566496e-02	-7.346324e-02	8.912820e-02	-8.129572e-02	-2.259744e-01	6.431764e-02	5.983019e-01	3.634686e-01	2.348333e-01
1910          	7.390159e-02	-1.891048e-01	2.630064e-01	1.648710e-02	-7.333194e-02	8.981904e-02	-8.157549e-02	-2.260556e-01	6.443284e-02	5.984668e-01	3.636663e-01	2.348006e-01
1911          	7.392467e-02	-1.891748e-01	2.630995e-01	1.729973e-02	-7.320484e-02	9.050457e-02	-8.185470e-02	-2.261372e-01	6.454954e-02	5.986341e-01	3.638666e-01	2.347675e-01
1912          	7.392977e-02	-1.892609e-01	2.631907e-01	1.807927e-02	-7.308540e-02	9.116467e-02	-8.212504e-02	-2.262258e-01	6.466780e-02	5.988131e-01	3.640743e-01	2.347387e-01
1913          	7.392288e-02	-1.893602e-01	2.632830e-01	1.884401e-02	-7.296788e-02	9.181189e-02	-8.238989e-02	-2.263216e-01	6.479033e-02	5.990053e-01	3.642930e-01	2.347123e-01
1914          	7.390834e-02	-1.894788e-01	2.633871e-01	1.952030e-02	-7.287548e-02	9.239579e-02	-8.263563e-02	-2.264330e-01	6.491675e-02	5.992090e-01	3.645213e-01	2.346878e-01
1915          	7.389513e-02	-1.896074e-01	2.635025e-01	2.014408e-02	-7.279088e-02	9.293497e-02	-8.286292e-02	-2.265550e-01	6.504735e-02	5.994187e-01	3.647567e-01	2.346620e-01
1916          	7.388874e-02	-1.897465e-01	2.636352e-01	2.069682e-02	-7.271118e-02	9.340800e-02	-8.305959e-02	-2.266909e-01	6.518168e-02	5.996390e-01	3.650012e-01	2.346378e-01
1917          	7.389496e-02	-1.898889e-01	2.637838e-01	2.119270e-02	-7.262944e-02	9.382214e-02	-8.322579e-02	-2.268363e-01	6.531911e-02	5.998668e-01	3.652525e-01	2.346143e-01
1918          	7.392017e-02	-1.900322e-01	2.639523e-01	2.161739e-02	-7.254704e-02	9.416443e-02	-8.335573e-02	-2.269922e-01	6.545899e-02	6.001034e-01	3.655107e-01	2.345927e-01
1919          	7.397517e-02	-1.901659e-01	2.641411e-01	2.198080e-02	-7.245169e-02	9.443249e-02	-8.344209e-02	-2.271535e-01	6.560166e-02	6.003393e-01	3.657713e-01	2.345680e-01
1920          	7.405923e-02	-1.902999e-01	2.643591e-01	2.223723e-02	-7.236306e-02	9.460029e-02	-8.348167e-02	-2.273295e-01	6.575038e-02	6.005910e-01	3.660459e-01	2.345451e-01
1921          	7.416853e-02	-1.904272e-01	2.645957e-01	2.243223e-02	-7.226151e-02	9.469374e-02	-8.347763e-02	-2.275115e-01	6.590313e-02	6.008472e-01	3.663267e-01	2.345205e-01
1922          	7.430421e-02	-1.905478e-01	2.648521e-01	2.256224e-02	-7.215223e-02	9.471447e-02	-8.343335e-02	-2.277000e-01	6.606074e-02	6.011086e-01	3.666150e-01	2.344936e-01
1923          	7.446502e-02	-1.906512e-01	2.651162e-01	2.269693e-02	-7.200186e-02	9.469879e-02	-8.335032e-02	-2.278837e-01	6.622000e-02	6.013625e-01	3.669012e-01	2.344612e-01
1924          	7.465208e-02	-1.907365e-01	2.653886e-01	2.281353e-02	-7.182794e-02	9.464147e-02	-8.323470e-02	-2.280625e-01	6.637640e-02	6.016021e-01	3.671774e-01	2.344247e-01
1925          	7.486616e-02	-1.908005e-01	2.656667e-01	2.293562e-02	-7.161418e-02	9.454980e-02	-8.308199e-02	-2.282336e-01	6.652824e-02	6.018258e-01	3.674411e-01	2.343846e-01
1926          	7.510484e-02	-1.908441e-01	2.659490e-01	2.307057e-02	-7.137725e-02	9.444782e-02	-8.291254e-02	-2.283966e-01	6.667400e-02	6.020388e-01	3.676934e-01	2.343454e-01
1927          	7.536896e-02	-1.908698e-01	2.662388e-01	2.321857e-02	-7.111811e-02	9.433669e-02	-8.272740e-02	-2.285543e-01	6.681443e-02	6.022509e-01	3.679399e-01	2.343110e-01
1928          	7.565827e-02	-1.908734e-01	2.665317e-01	2.340921e-02	-7.084090e-02	9.425010e-02	-8.254550e-02	-2.287026e-01	6.694714e-02	6.024630e-01	3.681786e-01	2.342843e-01
1929          	7.596377e-02	-1.908612e-01	2.668250e-01	2.360856e-02	-7.055945e-02	9.416801e-02	-8.236373e-02	-2.288431e-01	6.707040e-02	6.026687e-01	3.684048e-01	2.342640e-01
1930          	7.627951e-02	-1.908271e-01	2.671066e-01	2.388366e-02	-7.026150e-02	9.414517e-02	-8.220333e-02	-2.289669e-01	6.717969e-02	6.028680e-01	3.686137e-01	2.342543e-01
1931          	7.660505e-02	-1.907775e-01	2.673825e-01	2.418764e-02	-6.995865e-02	9.414629e-02	-8.205247e-02	-2.290800e-01	6.727474e-02	6.030673e-01	3.688084e-01	2.342589e-01
1932          	7.693546e-02	-1.907086e-01	2.676441e-01	2.454719e-02	-6.965583e-02	9.420302e-02	-8.192943e-02	-2.291764e-01	6.735655e-02	6.032608e-01	3.689870e-01	2.342739e-01
1933          	7.727784e-02	-1.906178e-01	2.678956e-01	2.496176e-02	-6.934668e-02	9.430844e-02	-8.182756e-02	-2.292567e-01	6.742714e-02	6.034522e-01	3.691532e-01	2.342990e-01
1934          	7.763021e-02	-1.904982e-01	2.681285e-01	2.545743e-02	-6.903403e-02	9.449146e-02	-8.176275e-02	-2.293133e-01	6.748363e-02	6.036268e-01	3.692970e-01	2.343298e-01
1935          	7.799550e-02	-1.903540e-01	2.683495e-01	2.603343e-02	-6.870866e-02	9.474208e-02	-8.172537e-02	-2.293517e-01	6.752602e-02	6.038027e-01	3.694274e-01	2.343753e-01
1936          	7.836846e-02	-1.901803e-01	2.685487e-01	2.672477e-02	-6.836628e-02	9.509104e-02	-8.172866e-02	-2.293645e-01	6.755050e-02	6.039638e-01	3.695324e-01	2.344314e-01
1937          	7.875218e-02	-1.899872e-01	2.687394e-01	2.745100e-02	-6.802668e-02	9.547768e-02	-8.175218e-02	-2.293633e-01	6.756106e-02	6.041186e-01	3.696204e-01	2.344983e-01
1938          	7.913713e-02	-1.897699e-01	2.689070e-01	2.824146e-02	-6.768336e-02	9.592482e-02	-8.180409e-02	-2.293384e-01	6.755646e-02	6.042462e-01	3.696795e-01	2.345666e-01
1939          	7.952461e-02	-1.895317e-01	2.690563e-01	2.907813e-02	-6.733396e-02	9.641209e-02	-8.187302e-02	-2.292940e-01	6.753800e-02	6.043508e-01	3.697134e-01	2.346374e-01
1940          	7.991547e-02	-1.892644e-01	2.691799e-01	2.992579e-02	-6.698743e-02	9.691322e-02	-8.195033e-02	-2.292222e-01	6.750011e-02	6.043975e-01	3.696989e-01	2.346986e-01
1941          	8.031508e-02	-1.889692e-01	2.692843e-01	3.079043e-02	-6.664009e-02	9.743053e-02	-8.203531e-02	-2.291267e-01	6.744351e-02	6.043948e-01	3.696409e-01	2.347539e-01
1942          	8.071096e-02	-1.886547e-01	2.693657e-01	3.163469e-02	-6.630777e-02	9.794246e-02	-8.212512e-02	-2.290102e-01	6.736842e-02	6.043320e-01	3.695344e-01	2.347976e-01
1943          	8.111557e-02	-1.883224e-01	2.694380e-01	3.243529e-02	-6.599356e-02	9.842885e-02	-8.221121e-02	-2.288802e-01	6.728078e-02	6.042214e-01	3.693915e-01	2.348299e-01
1944          	8.152325e-02	-1.879808e-01	2.695040e-01	3.314935e-02	-6.570744e-02	9.885679e-02	-8.228211e-02	-2.287424e-01	6.718218e-02	6.040606e-01	3.692125e-01	2.348481e-01
1945          	8.194475e-02	-1.876336e-01	2.695783e-01	3.374353e-02	-6.546252e-02	9.920605e-02	-8.233428e-02	-2.286059e-01	6.707991e-02	6.038611e-01	3.690105e-01	2.348507e-01
1946          	8.237707e-02	-1.872854e-01	2.696625e-01	3.420313e-02	-6.525912e-02	9.946224e-02	-8.236068e-02	-2.284739e-01	6.697550e-02	6.036225e-01	3.687867e-01	2.348357e-01
1947          	8.282312e-02	-1.869386e-01	2.697617e-01	3.453318e-02	-6.510278e-02	9.963596e-02	-8.236937e-02	-2.283501e-01	6.687425e-02	6.033543e-01	3.685514e-01	2.348029e-01
1948          	8.327146e-02	-1.866063e-01	2.698778e-01	3.471015e-02	-6.499758e-02	9.970773e-02	-8.235265e-02	-2.282420e-01	6.678045e-02	6.030675e-01	3.683142e-01	2.347533e-01
1949          	8.372075e-02	-1.862932e-01	2.700140e-01	3.474542e-02	-6.494119e-02	9.968662e-02	-8.231391e-02	-2.281536e-01	6.669760e-02	6.027783e-01	3.680868e-01	2.346916e-01
1950          	8.415840e-02	-1.860083e-01	2.701667e-01	3.467157e-02	-6.491802e-02	9.958959e-02	-8.225381e-02	-2.280875e-01	6.663132e-02	6.025010e-01	3.678818e-01	2.346192e-01
1951          	8.458092e-02	-1.857569e-01	2.703378e-01	3.449066e-02	-6.492784e-02	9.941850e-02	-8.217317e-02	-2.280474e-01	6.658453e-02	6.022490e-01	3.677090e-01	2.345399e-01
1952          	8.496776e-02	-1.855508e-01	2.705185e-01	3.425882e-02	-6.495421e-02	9.921302e-02	-8.208361e-02	-2.280347e-01	6.656149e-02	6.020399e-01	3.675814e-01	2.344585e-01
1953          	8.532745e-02	-1.853822e-01	2.707096e-01	3.396065e-02	-6.500074e-02	9.896139e-02	-8.198107e-02	-2.280459e-01	6.656173e-02	6.018632e-01	3.674934e-01	2.343699e-01
1954          	8.565351e-02	-1.852497e-01	2.709032e-01	3.364116e-02	-6.505100e-02	9.869216e-02	-8.187158e-02	-2.280764e-01	6.658604e-02	6.017221e-01	3.674471e-01	2.342750e-01
1955          	8.595952e-02	-1.851509e-01	2.711104e-01	3.327666e-02	-6.510665e-02	9.838331e-02	-8.174498e-02	-2.281307e-01	6.664039e-02	6.016245e-01	3.674526e-01	2.341719e-01
1956          	8.623825e-02	-1.850875e-01	2.713258e-01	3.291247e-02	-6.515304e-02	9.806551e-02	-8.160928e-02	-2.282066e-01	6.672409e-02	6.015813e-01	3.675147e-01	2.340666e-01
1957          	8.649551e-02	-1.850614e-01	2.715569e-01	3.250409e-02	-6.519962e-02	9.770371e-02	-8.145167e-02	-2.283091e-01	6.683797e-02	6.015945e-01	3.676352e-01	2.339593e-01
1958          	8.672714e-02	-1.850655e-01	2.717927e-01	3.208674e-02	-6.523265e-02	9.731938e-02	-8.127602e-02	-2.284291e-01	6.697423e-02	6.016524e-01	3.678004e-01	2.338520e-01
1959          	8.694224e-02	-1.850954e-01	2.720376e-01	3.162677e-02	-6.525465e-02	9.688143e-02	-8.106804e-02	-2.285665e-01	6.712867e-02	6.017491e-01	3.680032e-01	2.337459e-01
1960          	8.714301e-02	-1.851380e-01	2.722810e-01	3.117220e-02	-6.524803e-02	9.642023e-02	-8.083413e-02	-2.287095e-01	6.728952e-02	6.018677e-01	3.682234e-01	2.336443e-01
1961          	8.733824e-02	-1.851939e-01	2.725322e-01	3.070067e-02	-6.521273e-02	9.591340e-02	-8.056306e-02	-2.288630e-01	6.745768e-02	6.020177e-01	3.684665e-01	2.335512e-01
1962          	8.753054e-02	-1.852558e-01	2.727863e-01	3.023657e-02	-6.514493e-02	9.538150e-02	-8.026322e-02	-2.290211e-01	6.762940e-02	6.021937e-01	3.687262e-01	2.334674e-01
1963          	8.773556e-02	-1.853132e-01	2.730488e-01	2.975228e-02	-6.504878e-02	9.480105e-02	-7.992492e-02	-2.291810e-01	6.780136e-02	6.023829e-01	3.689928e-01	2.333901e-01
1964          	8.796133e-02	-1.853562e-01	2.733176e-01	2.926022e-02	-6.492453e-02	9.418474e-02	-7.955464e-02	-2.293369e-01	6.797091e-02	6.025732e-01	3.692575e-01	2.333157e-01
1965          	8.822335e-02	-1.853725e-01	2.735959e-01	2.876915e-02	-6.476258e-02	9.353173e-02	-7.914715e-02	-2.294842e-01	6.813396e-02	6.027516e-01	3.695097e-01	2.332418e-01
1966          	8.852319e-02	-1.853559e-01	2.738791e-01	2.830652e-02	-6.456243e-02	9.286895e-02	-7.871569e-02	-2.296175e-01	6.828593e-02	6.029084e-01	3.697402e-01	2.331683e-01