# Force and moment coefficients
# dragDir     : (1.000000e+00 0.000000e+00 0.000000e+00)
# sideDir     : (0.000000e+00 1.000000e+00 0.000000e+00)
# liftDir     : (0.000000e+00 0.000000e+00 1.000000e+00)
# rollAxis    : (1.000000e+00 0.000000e+00 0.000000e+00)
# pitchAxis   : (0.000000e+00 1.000000e+00 0.000000e+00)
# yawAxis     : (0.000000e+00 0.000000e+00 1.000000e+00)
# magUInf     : 1.750000e+01
# lRef        : 1.854000e+00
# Aref        : 6.450000e-01
# CofR        : (0.000000e+00 0.000000e+00 1.000000e+00)
#
# Time        	Cd            	Cd(f)         	Cd(r)         	Cl            	Cl(f)         	Cl(r)         	CmPitch       	CmRoll        	CmYaw         	Cs            	Cs(f)         	Cs(r)         
1             	2.639824e-01	1.377031e-01	1.262793e-01	-7.498159e-01	-7.144471e-01	-3.536885e-02	-3.395391e-01	5.711921e-03	4.803610e-02	5.047448e-01	3.004085e-01	2.043363e-01
2             	4.378335e-01	4.410513e-01	-3.217819e-03	-5.419603e-01	-6.608896e-01	1.189293e-01	-3.899094e-01	2.221346e-01	8.235542e-02	1.224140e+00	6.944253e-01	5.297145e-01
3             	6.060085e-01	7.250088e-01	-1.190003e-01	-3.321535e-01	-6.187672e-01	2.866137e-01	-4.526904e-01	4.220045e-01	1.129069e-01	1.881134e+00	1.053474e+00	8.276600e-01
4             	6.917093e-01	8.989774e-01	-2.072680e-01	-1.655110e-01	-5.835429e-01	4.180319e-01	-5.007874e-01	5.531227e-01	1.402534e-01	2.299269e+00	1.289888e+00	1.009381e+00
5             	6.674345e-01	9.339539e-01	-2.665194e-01	-5.992996e-02	-5.490606e-01	4.891306e-01	-5.190956e-01	6.002366e-01	1.644811e-01	2.427886e+00	1.378424e+00	1.049462e+00
6             	5.548007e-01	8.557975e-01	-3.009968e-01	-8.620891e-03	-5.143503e-01	5.057294e-01	-5.100398e-01	5.783972e-01	1.840658e-01	2.319205e+00	1.343668e+00	9.755368e-01
7             	4.037508e-01	7.193195e-01	-3.155688e-01	5.502473e-03	-4.829883e-01	4.884908e-01	-4.857395e-01	5.174442e-01	1.971117e-01	2.077899e+00	1.236061e+00	8.418379e-01
8             	2.671118e-01	5.840330e-01	-3.169213e-01	1.014176e-02	-4.606020e-01	4.707438e-01	-4.656729e-01	4.504772e-01	2.024916e-01	1.816718e+00	1.110851e+00	7.058676e-01
9             	1.832889e-01	4.937206e-01	-3.104317e-01	2.301876e-02	-4.492345e-01	4.722532e-01	-4.607438e-01	4.020761e-01	2.008265e-01	1.619939e+00	1.010796e+00	6.091428e-01
10            	1.667394e-01	4.649978e-01	-2.982584e-01	4.337785e-02	-4.475338e-01	4.909117e-01	-4.692228e-01	3.816281e-01	1.932516e-01	1.525933e+00	9.562181e-01	5.697150e-01
11            	2.072308e-01	4.915251e-01	-2.842944e-01	7.052826e-02	-4.523162e-01	5.228445e-01	-4.875803e-01	3.879098e-01	1.820247e-01	1.530154e+00	9.471019e-01	5.830526e-01
12            	2.801668e-01	5.526718e-01	-2.725050e-01	1.042834e-01	-4.579698e-01	5.622532e-01	-5.101115e-01	4.125884e-01	1.697492e-01	1.601302e+00	9.704002e-01	6.309017e-01
13            	3.573129e-01	6.223034e-01	-2.649905e-01	1.386522e-01	-4.601041e-01	5.987562e-01	-5.294302e-01	4.436470e-01	1.583610e-01	1.697317e+00	1.007020e+00	6.902977e-01
14            	4.167072e-01	6.798880e-01	-2.631808e-01	1.726021e-01	-4.510456e-01	6.236477e-01	-5.373466e-01	4.715344e-01	1.481796e-01	1.781920e+00	1.039139e+00	7.427802e-01
15            	4.472175e-01	7.138694e-01	-2.666519e-01	2.036209e-01	-4.292906e-01	6.329116e-01	-5.311011e-01	4.902607e-01	1.393105e-01	1.833303e+00	1.055962e+00	7.773410e-01
16            	4.491603e-01	7.228379e-01	-2.736776e-01	2.307335e-01	-3.971385e-01	6.278719e-01	-5.125052e-01	4.982577e-01	1.314567e-01	1.845906e+00	1.054410e+00	7.914964e-01
17            	4.312178e-01	7.129661e-01	-2.817483e-01	2.528255e-01	-3.600206e-01	6.128461e-01	-4.864334e-01	4.973572e-01	1.242063e-01	1.827382e+00	1.037897e+00	7.894847e-01
18            	4.050597e-01	6.938830e-01	-2.888233e-01	2.703705e-01	-3.240082e-01	5.943787e-01	-4.591934e-01	4.913531e-01	1.173376e-01	1.791834e+00	1.013255e+00	7.785795e-01
19            	3.815390e-01	6.751599e-01	-2.936209e-01	2.855196e-01	-2.929489e-01	5.784685e-01	-4.357087e-01	4.843904e-01	1.108984e-01	1.753865e+00	9.878308e-01	7.660339e-01
20            	3.681735e-01	6.635949e-01	-2.954214e-01	3.002583e-01	-2.680682e-01	5.683264e-01	-4.181973e-01	4.795082e-01	1.047928e-01	1.724286e+00	9.669359e-01	7.573503e-01
21            	3.670766e-01	6.617129e-01	-2.946363e-01	3.164428e-01	-2.487058e-01	5.651486e-01	-4.069272e-01	4.781746e-01	9.910444e-02	1.707920e+00	9.530646e-01	7.548557e-01
22            	3.763127e-01	6.685246e-01	-2.922119e-01	3.351483e-01	-2.331519e-01	5.683002e-01	-4.007260e-01	4.803682e-01	9.388234e-02	1.704199e+00	9.459820e-01	7.582173e-01
23            	3.913519e-01	6.809808e-01	-2.896289e-01	3.574477e-01	-2.187721e-01	5.762198e-01	-3.974959e-01	4.853048e-01	8.923413e-02	1.709297e+00	9.438826e-01	7.654144e-01
24            	4.073037e-01	6.951804e-01	-2.878767e-01	3.827009e-01	-2.039310e-01	5.866319e-01	-3.952814e-01	4.915285e-01	8.517307e-02	1.717893e+00	9.441195e-01	7.737734e-01
25            	4.206103e-01	7.079005e-01	-2.872902e-01	4.094330e-01	-1.878503e-01	5.972833e-01	-3.925668e-01	4.975953e-01	8.162949e-02	1.725379e+00	9.443189e-01	7.810599e-01
26            	4.293215e-01	7.171984e-01	-2.878769e-01	4.359269e-01	-1.707930e-01	6.067199e-01	-3.887564e-01	5.025377e-01	7.857917e-02	1.728906e+00	9.430322e-01	7.858738e-01
27            	4.334188e-01	7.225890e-01	-2.891702e-01	4.601136e-01	-1.540357e-01	6.141493e-01	-3.840925e-01	5.058796e-01	7.602761e-02	1.727738e+00	9.398965e-01	7.878412e-01
28            	4.343259e-01	7.246474e-01	-2.903215e-01	4.799899e-01	-1.392609e-01	6.192509e-01	-3.792559e-01	5.074844e-01	7.390541e-02	1.722576e+00	9.351933e-01	7.873825e-01
29            	4.339162e-01	7.245513e-01	-2.906351e-01	4.946905e-01	-1.273917e-01	6.220822e-01	-3.747370e-01	5.075932e-01	7.215199e-02	1.714920e+00	9.296118e-01	7.853078e-01
30            	4.338377e-01	7.237362e-01	-2.898984e-01	5.046222e-01	-1.187980e-01	6.234202e-01	-3.711091e-01	5.068173e-01	7.077803e-02	1.706684e+00	9.241203e-01	7.825642e-01
31            	4.351379e-01	7.230964e-01	-2.879585e-01	5.099424e-01	-1.139091e-01	6.238515e-01	-3.688803e-01	5.055275e-01	6.980663e-02	1.699189e+00	9.194013e-01	7.797880e-01
32            	4.380897e-01	7.232959e-01	-2.852062e-01	5.120903e-01	-1.123166e-01	6.244069e-01	-3.683618e-01	5.042510e-01	6.921329e-02	1.693272e+00	9.158492e-01	7.774226e-01
33            	4.423626e-01	7.247019e-01	-2.823393e-01	5.131688e-01	-1.122159e-01	6.253846e-01	-3.688002e-01	5.035206e-01	6.889232e-02	1.689383e+00	9.135837e-01	7.757991e-01
34            	4.470909e-01	7.267624e-01	-2.796715e-01	5.128348e-01	-1.137069e-01	6.265417e-01	-3.701243e-01	5.032170e-01	6.889320e-02	1.687184e+00	9.124850e-01	7.746986e-01
35            	4.515569e-01	7.295410e-01	-2.779841e-01	5.134787e-01	-1.145730e-01	6.280517e-01	-3.713123e-01	5.037626e-01	6.905435e-02	1.686543e+00	9.123261e-01	7.742174e-01
36            	4.551670e-01	7.325799e-01	-2.774129e-01	5.152432e-01	-1.143665e-01	6.296097e-01	-3.719881e-01	5.049964e-01	6.937474e-02	1.686848e+00	9.127985e-01	7.740490e-01
37            	4.576553e-01	7.354969e-01	-2.778415e-01	5.177633e-01	-1.129105e-01	6.306738e-01	-3.717921e-01	5.066692e-01	6.977841e-02	1.687637e+00	9.135969e-01	7.740401e-01
38            	4.591777e-01	7.384100e-01	-2.792323e-01	5.216133e-01	-1.099414e-01	6.315547e-01	-3.707481e-01	5.088211e-01	7.016912e-02	1.688735e+00	9.145365e-01	7.741983e-01
39            	4.600122e-01	7.413401e-01	-2.813279e-01	5.265401e-01	-1.057738e-01	6.323140e-01	-3.690439e-01	5.113340e-01	7.045257e-02	1.690041e+00	9.154732e-01	7.745680e-01
40            	4.606558e-01	7.441527e-01	-2.834968e-01	5.312092e-01	-1.012378e-01	6.324470e-01	-3.668424e-01	5.138247e-01	7.044466e-02	1.691363e+00	9.161261e-01	7.752368e-01
41            	4.614330e-01	7.467006e-01	-2.852676e-01	5.342458e-01	-9.756777e-02	6.318135e-01	-3.646907e-01	5.159841e-01	7.006601e-02	1.692674e+00	9.164030e-01	7.762710e-01
42            	4.626600e-01	7.488084e-01	-2.861484e-01	5.344651e-01	-9.515664e-02	6.296218e-01	-3.623892e-01	5.174784e-01	6.920416e-02	1.693756e+00	9.160821e-01	7.776738e-01
43            	4.644952e-01	7.502891e-01	-2.857939e-01	5.308694e-01	-9.440810e-02	6.252775e-01	-3.598428e-01	5.180415e-01	6.784073e-02	1.694490e+00	9.150855e-01	7.794041e-01
44            	4.669494e-01	7.511209e-01	-2.841716e-01	5.237175e-01	-9.528373e-02	6.190012e-01	-3.571425e-01	5.176463e-01	6.601337e-02	1.694672e+00	9.133491e-01	7.813224e-01
45            	4.698996e-01	7.512894e-01	-2.813898e-01	5.132438e-01	-9.771591e-02	6.109597e-01	-3.543378e-01	5.163396e-01	6.384552e-02	1.694297e+00	9.109939e-01	7.833029e-01
46            	4.732103e-01	7.508887e-01	-2.776784e-01	5.004625e-01	-1.012303e-01	6.016929e-01	-3.514616e-01	5.142836e-01	6.148041e-02	1.693243e+00	9.081019e-01	7.851411e-01
47            	4.767454e-01	7.500796e-01	-2.733342e-01	4.864148e-01	-1.052977e-01	5.917125e-01	-3.485051e-01	5.117069e-01	5.904859e-02	1.691567e+00	9.048322e-01	7.867351e-01
48            	4.804066e-01	7.489459e-01	-2.685393e-01	4.718559e-01	-1.093635e-01	5.812194e-01	-3.452915e-01	5.087426e-01	5.656301e-02	1.689171e+00	9.011487e-01	7.880226e-01
49            	4.840709e-01	7.476444e-01	-2.635735e-01	4.577801e-01	-1.129410e-01	5.707211e-01	-3.418311e-01	5.056089e-01	5.403876e-02	1.686139e+00	8.971081e-01	7.890306e-01
50            	4.877253e-01	7.461604e-01	-2.584351e-01	4.439885e-01	-1.159105e-01	5.598991e-01	-3.379048e-01	5.022978e-01	5.144272e-02	1.682490e+00	8.926879e-01	7.898024e-01
51            	4.914339e-01	7.444295e-01	-2.529956e-01	4.297696e-01	-1.184040e-01	5.481736e-01	-3.332888e-01	4.987126e-01	4.870509e-02	1.678352e+00	8.878812e-01	7.904711e-01
52            	4.952652e-01	7.424649e-01	-2.471997e-01	4.149990e-01	-1.207787e-01	5.357777e-01	-3.282782e-01	4.948323e-01	4.581152e-02	1.673754e+00	8.826887e-01	7.910656e-01
53            	4.993037e-01	7.402706e-01	-2.409669e-01	3.993273e-01	-1.234698e-01	5.227971e-01	-3.231335e-01	4.906188e-01	4.277480e-02	1.668766e+00	8.771576e-01	7.916080e-01
54            	5.035162e-01	7.379099e-01	-2.343937e-01	3.831276e-01	-1.266665e-01	5.097941e-01	-3.182303e-01	4.861518e-01	3.967681e-02	1.663429e+00	8.713911e-01	7.920375e-01
55            	5.079733e-01	7.352392e-01	-2.272660e-01	3.653726e-01	-1.308436e-01	4.962162e-01	-3.135299e-01	4.812526e-01	3.662129e-02	1.657847e+00	8.655446e-01	7.923020e-01
56            	5.126133e-01	7.323372e-01	-2.197239e-01	3.465727e-01	-1.360937e-01	4.826663e-01	-3.093800e-01	4.760306e-01	3.375560e-02	1.652129e+00	8.598202e-01	7.923090e-01
57            	5.173962e-01	7.292734e-01	-2.118772e-01	3.270502e-01	-1.424820e-01	4.695322e-01	-3.060071e-01	4.705753e-01	3.121191e-02	1.646431e+00	8.544275e-01	7.920037e-01
58            	5.222073e-01	7.260956e-01	-2.038883e-01	3.072898e-01	-1.499308e-01	4.572207e-01	-3.035757e-01	4.649919e-01	2.904804e-02	1.640780e+00	8.494383e-01	7.913422e-01
59            	5.269738e-01	7.228759e-01	-1.959021e-01	2.876976e-01	-1.581448e-01	4.458425e-01	-3.019937e-01	4.593890e-01	2.728528e-02	1.635274e+00	8.449224e-01	7.903518e-01
60            	5.315373e-01	7.196785e-01	-1.881412e-01	2.688115e-01	-1.666282e-01	4.354397e-01	-3.010340e-01	4.539099e-01	2.589779e-02	1.629986e+00	8.408910e-01	7.890954e-01
61            	5.358369e-01	7.166865e-01	-1.808496e-01	2.513402e-01	-1.750148e-01	4.263550e-01	-3.006849e-01	4.487680e-01	2.490381e-02	1.625140e+00	8.374740e-01	7.876663e-01
62            	5.398200e-01	7.139538e-01	-1.741338e-01	2.355453e-01	-1.830659e-01	4.186111e-01	-3.008385e-01	4.440438e-01	2.422696e-02	1.620763e+00	8.346083e-01	7.861544e-01
63            	5.435210e-01	7.115671e-01	-1.680461e-01	2.217115e-01	-1.905262e-01	4.122378e-01	-3.013820e-01	4.398066e-01	2.377849e-02	1.616872e+00	8.322146e-01	7.846576e-01
64            	5.469635e-01	7.095538e-01	-1.625903e-01	2.098241e-01	-1.973043e-01	4.071284e-01	-3.022164e-01	4.360721e-01	2.349417e-02	1.613436e+00	8.302123e-01	7.832240e-01
65            	5.502290e-01	7.079323e-01	-1.577032e-01	1.996054e-01	-2.035305e-01	4.031359e-01	-3.033332e-01	4.328178e-01	2.332164e-02	1.610454e+00	8.285485e-01	7.819052e-01
66            	5.533523e-01	7.067376e-01	-1.533853e-01	1.910086e-01	-2.091607e-01	4.001693e-01	-3.046650e-01	4.300614e-01	2.322610e-02	1.607896e+00	8.271740e-01	7.807218e-01
67            	5.564249e-01	7.061032e-01	-1.496783e-01	1.842237e-01	-2.142032e-01	3.984269e-01	-3.063150e-01	4.278908e-01	2.318286e-02	1.605842e+00	8.261037e-01	7.797379e-01
68            	5.595060e-01	7.062460e-01	-1.467400e-01	1.802355e-01	-2.181774e-01	3.984128e-01	-3.082951e-01	4.264930e-01	2.315776e-02	1.604275e+00	8.252954e-01	7.789799e-01
69            	5.626664e-01	7.072147e-01	-1.445483e-01	1.790572e-01	-2.211897e-01	4.002469e-01	-3.107183e-01	4.258815e-01	2.309375e-02	1.603194e+00	8.246908e-01	7.785033e-01
70            	5.659157e-01	7.089612e-01	-1.430454e-01	1.805842e-01	-2.232005e-01	4.037847e-01	-3.134926e-01	4.260033e-01	2.292372e-02	1.602486e+00	8.241669e-01	7.783195e-01
71            	5.692228e-01	7.113955e-01	-1.421727e-01	1.846217e-01	-2.242968e-01	4.089185e-01	-3.166076e-01	4.267841e-01	2.259058e-02	1.602075e+00	8.236279e-01	7.784467e-01
72            	5.725803e-01	7.144214e-01	-1.418411e-01	1.908681e-01	-2.245701e-01	4.154382e-01	-3.200042e-01	4.281313e-01	2.208302e-02	1.601879e+00	8.230225e-01	7.788564e-01
73            	5.759129e-01	7.178979e-01	-1.419850e-01	1.990543e-01	-2.241202e-01	4.231744e-01	-3.236473e-01	4.299414e-01	2.137908e-02	1.601833e+00	8.222956e-01	7.795374e-01
74            	5.792231e-01	7.217645e-01	-1.425414e-01	2.089625e-01	-2.229917e-01	4.319542e-01	-3.274729e-01	4.321529e-01	2.048693e-02	1.601922e+00	8.214477e-01	7.804738e-01
75            	5.825117e-01	7.259188e-01	-1.434071e-01	2.200596e-01	-2.214070e-01	4.414666e-01	-3.314368e-01	4.346630e-01	1.941266e-02	1.602179e+00	8.205020e-01	7.816766e-01
76            	5.857591e-01	7.302672e-01	-1.445081e-01	2.318823e-01	-2.194719e-01	4.513542e-01	-3.354131e-01	4.373877e-01	1.819223e-02	1.602600e+00	8.194922e-01	7.831078e-01
77            	5.889370e-01	7.346939e-01	-1.457569e-01	2.438368e-01	-2.174777e-01	4.613145e-01	-3.393961e-01	4.402254e-01	1.688800e-02	1.603221e+00	8.184983e-01	7.847223e-01
78            	5.920159e-01	7.391055e-01	-1.470896e-01	2.553997e-01	-2.155762e-01	4.709758e-01	-3.432760e-01	4.430975e-01	1.553813e-02	1.604037e+00	8.175568e-01	7.864805e-01
79            	5.950149e-01	7.433990e-01	-1.483841e-01	2.660665e-01	-2.140601e-01	4.801266e-01	-3.470934e-01	4.458915e-01	1.415424e-02	1.605009e+00	8.166588e-01	7.883504e-01
80            	5.979324e-01	7.474479e-01	-1.495154e-01	2.754861e-01	-2.129791e-01	4.884652e-01	-3.507222e-01	4.484817e-01	1.273600e-02	1.605958e+00	8.157148e-01	7.902428e-01
81            	6.006996e-01	7.511193e-01	-1.504197e-01	2.833515e-01	-2.123498e-01	4.957013e-01	-3.540255e-01	4.507695e-01	1.129444e-02	1.606776e+00	8.146823e-01	7.920934e-01
82            	6.033176e-01	7.543320e-01	-1.510144e-01	2.893945e-01	-2.120865e-01	5.014809e-01	-3.567837e-01	4.526732e-01	9.850586e-03	1.607408e+00	8.135546e-01	7.938535e-01
83            	6.058091e-01	7.571165e-01	-1.513073e-01	2.937538e-01	-2.121139e-01	5.058677e-01	-3.589908e-01	4.542119e-01	8.434555e-03	1.607888e+00	8.123787e-01	7.955096e-01
84            	6.082226e-01	7.594597e-01	-1.512371e-01	2.963038e-01	-2.124315e-01	5.087353e-01	-3.605834e-01	4.553484e-01	7.050925e-03	1.608203e+00	8.111522e-01	7.970504e-01
85            	6.105052e-01	7.613956e-01	-1.508904e-01	2.974860e-01	-2.128930e-01	5.103790e-01	-3.616360e-01	4.561430e-01	5.722557e-03	1.608346e+00	8.098957e-01	7.984506e-01
86            	6.126749e-01	7.629131e-01	-1.502382e-01	2.972636e-01	-2.135657e-01	5.108293e-01	-3.621975e-01	4.565756e-01	4.449424e-03	1.608288e+00	8.085932e-01	7.996944e-01
87            	6.147550e-01	7.640339e-01	-1.492789e-01	2.956476e-01	-2.145182e-01	5.101658e-01	-3.623420e-01	4.566564e-01	3.208753e-03	1.608040e+00	8.072286e-01	8.008110e-01
88            	6.167406e-01	7.647597e-01	-1.480190e-01	2.926299e-01	-2.157819e-01	5.084118e-01	-3.620968e-01	4.563893e-01	1.995105e-03	1.607610e+00	8.058001e-01	8.018099e-01
89            	6.185677e-01	7.651545e-01	-1.465867e-01	2.885310e-01	-2.172465e-01	5.057775e-01	-3.615120e-01	4.558706e-01	8.493960e-04	1.607091e+00	8.043948e-01	8.026960e-01
90            	6.201517e-01	7.652378e-01	-1.450861e-01	2.836412e-01	-2.187958e-01	5.024370e-01	-3.606164e-01	4.551619e-01	-2.040713e-04	1.606475e+00	8.030333e-01	8.034415e-01
91            	6.214145e-01	7.650120e-01	-1.435975e-01	2.781505e-01	-2.202954e-01	4.984460e-01	-3.593707e-01	4.543048e-01	-1.134324e-03	1.605776e+00	8.017535e-01	8.040221e-01
92            	6.222883e-01	7.644973e-01	-1.422090e-01	2.725475e-01	-2.215914e-01	4.941388e-01	-3.578651e-01	4.533531e-01	-1.948394e-03	1.604930e+00	8.005168e-01	8.044135e-01
93            	6.227592e-01	7.636699e-01	-1.409107e-01	2.669226e-01	-2.226455e-01	4.895681e-01	-3.561068e-01	4.522903e-01	-2.672452e-03	1.603841e+00	7.992480e-01	8.045929e-01
94            	6.228226e-01	7.625537e-01	-1.397311e-01	2.616215e-01	-2.234652e-01	4.850867e-01	-3.542759e-01	4.511424e-01	-3.352418e-03	1.602439e+00	7.978669e-01	8.045718e-01
95            	6.225232e-01	7.611538e-01	-1.386306e-01	2.567277e-01	-2.240776e-01	4.808053e-01	-3.524415e-01	4.498922e-01	-4.032239e-03	1.600694e+00	7.963149e-01	8.043794e-01
96            	6.219138e-01	7.594913e-01	-1.375775e-01	2.523254e-01	-2.246229e-01	4.769483e-01	-3.507856e-01	4.485344e-01	-4.741972e-03	1.598615e+00	7.945656e-01	8.040495e-01
97            	6.211146e-01	7.575995e-01	-1.364849e-01	2.481602e-01	-2.253214e-01	4.734816e-01	-3.494015e-01	4.470422e-01	-5.505282e-03	1.596293e+00	7.926411e-01	8.036517e-01
98            	6.202362e-01	7.555153e-01	-1.352791e-01	2.440434e-01	-2.262920e-01	4.703354e-01	-3.483137e-01	4.453972e-01	-6.341872e-03	1.593761e+00	7.905388e-01	8.032225e-01
99            	6.193931e-01	7.532682e-01	-1.338751e-01	2.395132e-01	-2.277431e-01	4.672563e-01	-3.474997e-01	4.435716e-01	-7.255384e-03	1.591181e+00	7.883351e-01	8.028459e-01
100           	6.186415e-01	7.509297e-01	-1.322882e-01	2.345849e-01	-2.296358e-01	4.642207e-01	-3.469282e-01	4.416089e-01	-8.232995e-03	1.588655e+00	7.860943e-01	8.025603e-01
101           	6.179882e-01	7.485894e-01	-1.306012e-01	2.294584e-01	-2.318592e-01	4.613176e-01	-3.465884e-01	4.395953e-01	-9.219218e-03	1.586323e+00	7.839425e-01	8.023809e-01
102           	6.173879e-01	7.463628e-01	-1.289749e-01	2.247657e-01	-2.340659e-01	4.588315e-01	-3.464487e-01	4.376689e-01	-1.016595e-02	1.584217e+00	7.819426e-01	8.022745e-01
103           	6.167405e-01	7.442935e-01	-1.275529e-01	2.210651e-01	-2.358563e-01	4.569214e-01	-3.463889e-01	4.359232e-01	-1.101858e-02	1.582294e+00	7.801286e-01	8.021657e-01
104           	6.160489e-01	7.425041e-01	-1.264552e-01	2.189652e-01	-2.368847e-01	4.558500e-01	-3.463673e-01	4.344797e-01	-1.179495e-02	1.580566e+00	7.784881e-01	8.020780e-01
105           	6.152749e-01	7.410202e-01	-1.257453e-01	2.185784e-01	-2.370016e-01	4.555800e-01	-3.462908e-01	4.333828e-01	-1.249288e-02	1.579077e+00	7.770455e-01	8.020312e-01
106           	6.144000e-01	7.398464e-01	-1.254463e-01	2.198758e-01	-2.361372e-01	4.560131e-01	-3.460751e-01	4.326463e-01	-1.311811e-02	1.577827e+00	7.757952e-01	8.020315e-01
107           	6.134168e-01	7.389764e-01	-1.255596e-01	2.227999e-01	-2.343103e-01	4.571102e-01	-3.457102e-01	4.322680e-01	-1.366075e-02	1.576841e+00	7.747598e-01	8.020813e-01
108           	6.123437e-01	7.384062e-01	-1.260626e-01	2.271074e-01	-2.316696e-01	4.587770e-01	-3.452233e-01	4.322344e-01	-1.413611e-02	1.576138e+00	7.739327e-01	8.022049e-01
109           	6.112358e-01	7.381629e-01	-1.269271e-01	2.327912e-01	-2.282457e-01	4.610369e-01	-3.446413e-01	4.325450e-01	-1.457493e-02	1.575694e+00	7.732721e-01	8.024220e-01
110           	6.100984e-01	7.381293e-01	-1.280309e-01	2.392114e-01	-2.243235e-01	4.635349e-01	-3.439292e-01	4.330801e-01	-1.498047e-02	1.575398e+00	7.727185e-01	8.026794e-01
111           	6.089185e-01	7.381981e-01	-1.292797e-01	2.460895e-01	-2.200546e-01	4.661441e-01	-3.430993e-01	4.337389e-01	-1.536605e-02	1.575076e+00	7.721721e-01	8.029042e-01
112           	6.077646e-01	7.382872e-01	-1.305226e-01	2.529082e-01	-2.156481e-01	4.685563e-01	-3.421022e-01	4.344049e-01	-1.580742e-02	1.574617e+00	7.715012e-01	8.031161e-01
113           	6.066769e-01	7.383097e-01	-1.316328e-01	2.590953e-01	-2.114354e-01	4.705307e-01	-3.409831e-01	4.349712e-01	-1.634508e-02	1.573976e+00	7.706429e-01	8.033331e-01
114           	6.057152e-01	7.382083e-01	-1.324931e-01	2.642965e-01	-2.075840e-01	4.718805e-01	-3.397322e-01	4.353507e-01	-1.698654e-02	1.573062e+00	7.695444e-01	8.035175e-01
115           	6.048929e-01	7.379622e-01	-1.330694e-01	2.685102e-01	-2.042081e-01	4.727183e-01	-3.384632e-01	4.355158e-01	-1.771836e-02	1.571703e+00	7.681333e-01	8.035701e-01
116           	6.042352e-01	7.375445e-01	-1.333093e-01	2.715208e-01	-2.014075e-01	4.729282e-01	-3.371678e-01	4.354269e-01	-1.851976e-02	1.569833e+00	7.663967e-01	8.034362e-01
117           	6.037853e-01	7.369750e-01	-1.331897e-01	2.732527e-01	-1.993204e-01	4.725731e-01	-3.359467e-01	4.350823e-01	-1.938892e-02	1.567436e+00	7.643292e-01	8.031070e-01
118           	6.035913e-01	7.362664e-01	-1.326751e-01	2.735995e-01	-1.980433e-01	4.716428e-01	-3.348431e-01	4.344708e-01	-2.034810e-02	1.564546e+00	7.619249e-01	8.026212e-01
119           	6.036548e-01	7.354378e-01	-1.317829e-01	2.726255e-01	-1.976014e-01	4.702269e-01	-3.339142e-01	4.336103e-01	-2.139639e-02	1.561261e+00	7.592341e-01	8.020268e-01
120           	6.039334e-01	7.344581e-01	-1.305247e-01	2.704030e-01	-1.980077e-01	4.684107e-01	-3.332092e-01	4.324914e-01	-2.252864e-02	1.557591e+00	7.562669e-01	8.013242e-01
121           	6.043974e-01	7.333452e-01	-1.289478e-01	2.670856e-01	-1.992271e-01	4.663127e-01	-3.327699e-01	4.311465e-01	-2.370306e-02	1.553681e+00	7.531376e-01	8.005438e-01
122           	6.049963e-01	7.320922e-01	-1.270959e-01	2.629148e-01	-2.011163e-01	4.640311e-01	-3.325737e-01	4.295940e-01	-2.491389e-02	1.549507e+00	7.498396e-01	7.996674e-01
123           	6.057667e-01	7.308204e-01	-1.250537e-01	2.581283e-01	-2.036455e-01	4.617738e-01	-3.327096e-01	4.279370e-01	-2.613648e-02	1.545284e+00	7.465057e-01	7.987786e-01
124           	6.066905e-01	7.295939e-01	-1.229034e-01	2.530701e-01	-2.066079e-01	4.596780e-01	-3.331429e-01	4.262486e-01	-2.737274e-02	1.541020e+00	7.431373e-01	7.978828e-01
125           	6.077581e-01	7.285542e-01	-1.207961e-01	2.480151e-01	-2.099388e-01	4.579539e-01	-3.339463e-01	4.246751e-01	-2.857044e-02	1.536989e+00	7.399242e-01	7.970651e-01
126           	6.089672e-01	7.276955e-01	-1.187283e-01	2.429538e-01	-2.135075e-01	4.564614e-01	-3.349845e-01	4.232119e-01	-2.973776e-02	1.533158e+00	7.368410e-01	7.963166e-01
127           	6.103073e-01	7.270662e-01	-1.167589e-01	2.379072e-01	-2.172815e-01	4.551887e-01	-3.362351e-01	4.219126e-01	-3.083007e-02	1.529686e+00	7.340127e-01	7.956729e-01
128           	6.116388e-01	7.265833e-01	-1.149445e-01	2.331130e-01	-2.210050e-01	4.541180e-01	-3.375615e-01	4.207639e-01	-3.178236e-02	1.526425e+00	7.314303e-01	7.949950e-01
129           	6.128262e-01	7.262180e-01	-1.133918e-01	2.287321e-01	-2.246679e-01	4.534000e-01	-3.390340e-01	4.198049e-01	-3.250569e-02	1.523501e+00	7.292448e-01	7.942562e-01
130           	6.137042e-01	7.258507e-01	-1.121465e-01	2.249086e-01	-2.279914e-01	4.529000e-01	-3.404457e-01	4.189986e-01	-3.294890e-02	1.520777e+00	7.274397e-01	7.933375e-01
131           	6.141705e-01	7.254604e-01	-1.112899e-01	2.215263e-01	-2.309982e-01	4.525245e-01	-3.417613e-01	4.183752e-01	-3.304728e-02	1.518439e+00	7.261724e-01	7.922670e-01
132           	6.141626e-01	7.249697e-01	-1.108072e-01	2.184350e-01	-2.335858e-01	4.520207e-01	-3.428033e-01	4.178885e-01	-3.279915e-02	1.516452e+00	7.254268e-01	7.910251e-01
133           	6.136466e-01	7.243707e-01	-1.107241e-01	2.154946e-01	-2.357481e-01	4.512427e-01	-3.434954e-01	4.175474e-01	-3.226469e-02	1.514885e+00	7.251778e-01	7.897071e-01
134           	6.125896e-01	7.235870e-01	-1.109974e-01	2.126307e-01	-2.373221e-01	4.499528e-01	-3.436374e-01	4.172922e-01	-3.153557e-02	1.513589e+00	7.252591e-01	7.883303e-01
135           	6.110927e-01	7.226503e-01	-1.115576e-01	2.093843e-01	-2.385521e-01	4.479364e-01	-3.432443e-01	4.171040e-01	-3.065777e-02	1.512740e+00	7.257122e-01	7.870278e-01
136           	6.092762e-01	7.216169e-01	-1.123407e-01	2.060043e-01	-2.393766e-01	4.453809e-01	-3.423787e-01	4.169788e-01	-2.973514e-02	1.512210e+00	7.263700e-01	7.858403e-01
137           	6.072667e-01	7.205550e-01	-1.132883e-01	2.025330e-01	-2.397864e-01	4.423194e-01	-3.410529e-01	4.169217e-01	-2.885653e-02	1.512003e+00	7.271452e-01	7.848583e-01
138           	6.051686e-01	7.195668e-01	-1.143982e-01	1.995115e-01	-2.396088e-01	4.391203e-01	-3.393646e-01	4.169825e-01	-2.806458e-02	1.512019e+00	7.279451e-01	7.840742e-01
139           	6.030497e-01	7.187017e-01	-1.156520e-01	1.969867e-01	-2.387700e-01	4.357566e-01	-3.372633e-01	4.171769e-01	-2.735905e-02	1.512292e+00	7.287870e-01	7.835051e-01
140           	6.009302e-01	7.179376e-01	-1.170075e-01	1.950945e-01	-2.372160e-01	4.323106e-01	-3.347633e-01	4.174725e-01	-2.673463e-02	1.512671e+00	7.296009e-01	7.830702e-01
141           	5.988555e-01	7.172544e-01	-1.183989e-01	1.936506e-01	-2.349803e-01	4.286309e-01	-3.318056e-01	4.178267e-01	-2.619995e-02	1.513104e+00	7.303521e-01	7.827520e-01
142           	5.968659e-01	7.166160e-01	-1.197501e-01	1.924862e-01	-2.321475e-01	4.246337e-01	-3.283906e-01	4.181831e-01	-2.577841e-02	1.513493e+00	7.309681e-01	7.825249e-01
143           	5.950053e-01	7.160353e-01	-1.210300e-01	1.916033e-01	-2.287930e-01	4.203963e-01	-3.245946e-01	4.185327e-01	-2.548773e-02	1.513805e+00	7.314150e-01	7.823904e-01
144           	5.932652e-01	7.154839e-01	-1.222187e-01	1.909534e-01	-2.250436e-01	4.159970e-01	-3.205203e-01	4.188513e-01	-2.531777e-02	1.513991e+00	7.316778e-01	7.823134e-01
145           	5.916404e-01	7.149622e-01	-1.233218e-01	1.904103e-01	-2.211211e-01	4.115314e-01	-3.163263e-01	4.191420e-01	-2.522836e-02	1.514100e+00	7.318217e-01	7.822784e-01
146           	5.901207e-01	7.144665e-01	-1.243457e-01	1.899000e-01	-2.172313e-01	4.071313e-01	-3.121813e-01	4.194061e-01	-2.517448e-02	1.514165e+00	7.319078e-01	7.822568e-01
147           	5.887416e-01	7.140362e-01	-1.252946e-01	1.893224e-01	-2.136355e-01	4.029579e-01	-3.082967e-01	4.196654e-01	-2.509530e-02	1.514286e+00	7.320476e-01	7.822382e-01
148           	5.875022e-01	7.136492e-01	-1.261471e-01	1.884332e-01	-2.106496e-01	3.990827e-01	-3.048661e-01	4.198981e-01	-2.495756e-02	1.514554e+00	7.323194e-01	7.822345e-01
149           	5.864199e-01	7.132612e-01	-1.268413e-01	1.870474e-01	-2.084040e-01	3.954514e-01	-3.019277e-01	4.200513e-01	-2.472653e-02	1.514945e+00	7.327458e-01	7.821989e-01
150           	5.854259e-01	7.127247e-01	-1.272987e-01	1.846729e-01	-2.072749e-01	3.919478e-01	-2.996113e-01	4.200117e-01	-2.441411e-02	1.515387e+00	7.332793e-01	7.821075e-01
151           	5.845517e-01	7.120517e-01	-1.275000e-01	1.814469e-01	-2.071416e-01	3.885885e-01	-2.978651e-01	4.197758e-01	-2.402515e-02	1.515800e+00	7.338748e-01	7.819251e-01
152           	5.837559e-01	7.111233e-01	-1.273674e-01	1.772303e-01	-2.080603e-01	3.852906e-01	-2.966754e-01	4.192454e-01	-2.358334e-02	1.516004e+00	7.344185e-01	7.815852e-01
153           	5.830477e-01	7.098919e-01	-1.268443e-01	1.719191e-01	-2.100189e-01	3.819380e-01	-2.959785e-01	4.183681e-01	-2.310839e-02	1.515903e+00	7.348429e-01	7.810597e-01
154           	5.824226e-01	7.083589e-01	-1.259363e-01	1.658918e-01	-2.127533e-01	3.786451e-01	-2.956992e-01	4.171476e-01	-2.266110e-02	1.515319e+00	7.349982e-01	7.803204e-01
155           	5.818756e-01	7.065401e-01	-1.246645e-01	1.591880e-01	-2.162111e-01	3.753991e-01	-2.958051e-01	4.156023e-01	-2.227010e-02	1.514233e+00	7.348463e-01	7.793865e-01
156           	5.814304e-01	7.045750e-01	-1.231446e-01	1.525555e-01	-2.199193e-01	3.724748e-01	-2.961971e-01	4.138598e-01	-2.198369e-02	1.512589e+00	7.343109e-01	7.782783e-01
157           	5.811237e-01	7.026049e-01	-1.214812e-01	1.462615e-01	-2.237398e-01	3.700013e-01	-2.968705e-01	4.120430e-01	-2.181294e-02	1.510549e+00	7.334614e-01	7.770873e-01
158           	5.809931e-01	7.007691e-01	-1.197760e-01	1.409681e-01	-2.272477e-01	3.682158e-01	-2.977318e-01	4.102726e-01	-2.178757e-02	1.508092e+00	7.322584e-01	7.758335e-01
159           	5.810151e-01	6.991223e-01	-1.181072e-01	1.367427e-01	-2.303922e-01	3.671349e-01	-2.987635e-01	4.086148e-01	-2.187822e-02	1.505345e+00	7.307942e-01	7.745506e-01
160           	5.811500e-01	6.976828e-01	-1.165327e-01	1.337708e-01	-2.329209e-01	3.666917e-01	-2.998063e-01	4.071078e-01	-2.207193e-02	1.502289e+00	7.290725e-01	7.732163e-01
161           	5.813794e-01	6.964403e-01	-1.150608e-01	1.317213e-01	-2.349628e-01	3.666840e-01	-3.008234e-01	4.057505e-01	-2.230239e-02	1.499085e+00	7.272403e-01	7.718451e-01
162           	5.816765e-01	6.953772e-01	-1.137007e-01	1.304538e-01	-2.364589e-01	3.669126e-01	-3.016858e-01	4.045389e-01	-2.254986e-02	1.495784e+00	7.253420e-01	7.704417e-01
163           	5.820342e-01	6.944749e-01	-1.124406e-01	1.294576e-01	-2.376929e-01	3.671506e-01	-3.024217e-01	4.034578e-01	-2.277183e-02	1.492606e+00	7.235309e-01	7.690746e-01
164           	5.824429e-01	6.936877e-01	-1.112449e-01	1.285255e-01	-2.387075e-01	3.672330e-01	-3.029702e-01	4.024663e-01	-2.298028e-02	1.489535e+00	7.217872e-01	7.677478e-01
165           	5.829277e-01	6.929512e-01	-1.100235e-01	1.272488e-01	-2.397843e-01	3.670331e-01	-3.034087e-01	4.014874e-01	-2.316725e-02	1.486584e+00	7.201245e-01	7.664590e-01
166           	5.835465e-01	6.921975e-01	-1.086510e-01	1.254468e-01	-2.410299e-01	3.664767e-01	-3.037533e-01	4.004243e-01	-2.339377e-02	1.483559e+00	7.183858e-01	7.651733e-01
167           	5.843469e-01	6.913793e-01	-1.070324e-01	1.227675e-01	-2.426769e-01	3.654444e-01	-3.040606e-01	3.992059e-01	-2.367303e-02	1.480456e+00	7.165551e-01	7.639012e-01