# Force and moment coefficients
# dragDir     : (1.000000e+00 0.000000e+00 0.000000e+00)
# sideDir     : (0.000000e+00 1.000000e+00 0.000000e+00)
# liftDir     : (0.000000e+00 0.000000e+00 1.000000e+00)
# rollAxis    : (1.000000e+00 0.000000e+00 0.000000e+00)
# pitchAxis   : (0.000000e+00 1.000000e+00 0.000000e+00)
# yawAxis     : (0.000000e+00 0.000000e+00 1.000000e+00)
# magUInf     : 1.750000e+01
# lRef        : 1.854000e+00
# Aref        : 6.650000e-01
# CofR        : (0.000000e+00 0.000000e+00 0.000000e+00)
#
# Time        	Cd            	Cd(f)         	Cd(r)         	Cl            	Cl(f)         	Cl(r)         	CmPitch       	CmRoll        	CmYaw         	Cs            	Cs(f)         	Cs(r)         
1             	1.413722e-02	-1.833905e-02	3.247627e-02	1.434909e-02	2.117445e-03	1.223165e-02	-5.057101e-03	-2.540766e-02	9.452886e-02	1.987265e-01	1.938921e-01	4.834360e-03
2             	3.726876e-02	-2.615452e-02	6.342328e-02	8.838602e-03	5.413857e-03	3.424745e-03	9.945560e-04	-4.478890e-02	1.441028e-01	3.158494e-01	3.020275e-01	1.382190e-02
3             	5.884205e-02	-3.250757e-02	9.134962e-02	3.935404e-03	8.507061e-03	-4.571657e-03	6.539359e-03	-6.192860e-02	1.873876e-01	4.191702e-01	3.969727e-01	2.219747e-02
4             	6.904886e-02	-3.769703e-02	1.067459e-01	1.640398e-03	9.999361e-03	-8.358963e-03	9.179162e-03	-7.222147e-02	2.151411e-01	4.828694e-01	4.565758e-01	2.629356e-02
5             	6.495442e-02	-4.229782e-02	1.072522e-01	1.958480e-03	9.465624e-03	-7.507144e-03	8.486384e-03	-7.477503e-02	2.254292e-01	5.011251e-01	4.759917e-01	2.513337e-02
6             	4.964651e-02	-4.632626e-02	9.597277e-02	4.354305e-03	7.336570e-03	-2.982265e-03	5.159417e-03	-7.114952e-02	2.215490e-01	4.829546e-01	4.630263e-01	1.992828e-02
7             	2.963718e-02	-4.933612e-02	7.897330e-02	7.702981e-03	4.534262e-03	3.168720e-03	6.827710e-04	-6.415471e-02	2.090831e-01	4.442531e-01	4.312096e-01	1.304348e-02
8             	1.172107e-02	-5.077176e-02	6.249283e-02	1.096143e-02	2.018578e-03	8.942855e-03	-3.462138e-03	-5.663229e-02	1.938428e-01	4.014093e-01	3.945474e-01	6.861893e-03
9             	5.871057e-04	-5.044030e-02	5.102741e-02	1.343113e-02	4.580538e-04	1.297308e-02	-6.257513e-03	-5.073385e-02	1.806901e-01	3.673175e-01	3.643488e-01	2.968700e-03
10            	-2.259171e-03	-4.873413e-02	4.647496e-02	1.426060e-02	6.652793e-05	1.419407e-02	-7.063770e-03	-4.760455e-02	1.717119e-01	3.471944e-01	3.453091e-01	1.885247e-03
11            	1.924972e-03	-4.615950e-02	4.808447e-02	1.375556e-02	6.654374e-04	1.309012e-02	-6.212341e-03	-4.712199e-02	1.673332e-01	3.410596e-01	3.378630e-01	3.196595e-03
12            	1.020101e-02	-4.336903e-02	5.357004e-02	1.254430e-02	1.839477e-03	1.070483e-02	-4.432675e-03	-4.846954e-02	1.666820e-01	3.452515e-01	3.393077e-01	5.943774e-03
13            	1.928655e-02	-4.092880e-02	6.021534e-02	1.124823e-02	3.124993e-03	8.123233e-03	-2.499120e-03	-5.057207e-02	1.680676e-01	3.542591e-01	3.451972e-01	9.061938e-03
14            	2.671759e-02	-3.912889e-02	6.584648e-02	1.031409e-02	4.173842e-03	6.140243e-03	-9.832003e-04	-5.248769e-02	1.697064e-01	3.629005e-01	3.511567e-01	1.174384e-02
15            	3.131982e-02	-3.802003e-02	6.933984e-02	9.845395e-03	4.820676e-03	5.024720e-03	-1.020219e-04	-5.367994e-02	1.703622e-01	3.678944e-01	3.543094e-01	1.358501e-02
16            	3.305766e-02	-3.741876e-02	7.047642e-02	9.858485e-03	5.063361e-03	4.795124e-03	1.341185e-04	-5.394759e-02	1.694308e-01	3.679363e-01	3.533990e-01	1.453733e-02
17            	3.279313e-02	-3.706771e-02	6.986084e-02	1.006923e-02	5.022950e-03	5.046276e-03	-1.166294e-05	-5.346427e-02	1.668881e-01	3.634389e-01	3.486075e-01	1.483134e-02
18            	3.164882e-02	-3.667430e-02	6.832312e-02	1.035582e-02	4.857534e-03	5.498283e-03	-3.203745e-04	-5.249871e-02	1.631520e-01	3.558663e-01	3.410852e-01	1.478113e-02
19            	3.055404e-02	-3.614623e-02	6.670027e-02	1.049270e-02	4.700660e-03	5.792040e-03	-5.456900e-04	-5.142325e-02	1.590482e-01	3.473836e-01	3.327400e-01	1.464360e-02
20            	3.031696e-02	-3.541023e-02	6.572719e-02	1.018868e-02	4.666106e-03	5.522570e-03	-4.282324e-04	-5.056871e-02	1.550699e-01	3.394908e-01	3.248152e-01	1.467551e-02
21            	3.111710e-02	-3.448011e-02	6.559721e-02	9.561755e-03	4.779610e-03	4.782145e-03	-1.267363e-06	-5.003866e-02	1.516732e-01	3.332342e-01	3.182902e-01	1.494392e-02
22            	3.284249e-02	-3.340758e-02	6.625007e-02	8.759532e-03	5.025173e-03	3.734359e-03	6.454072e-04	-4.982882e-02	1.490175e-01	3.289059e-01	3.134704e-01	1.543548e-02
23            	3.499538e-02	-3.231948e-02	6.731486e-02	8.093853e-03	5.331632e-03	2.762221e-03	1.284706e-03	-4.981717e-02	1.472359e-01	3.265117e-01	3.104917e-01	1.601992e-02
24            	3.710945e-02	-3.132313e-02	6.843257e-02	7.737257e-03	5.632465e-03	2.104792e-03	1.763836e-03	-4.987785e-02	1.462369e-01	3.256339e-01	3.090539e-01	1.658006e-02
25            	3.887794e-02	-3.046917e-02	6.934711e-02	7.733563e-03	5.884003e-03	1.849560e-03	2.017222e-03	-4.990814e-02	1.457716e-01	3.256371e-01	3.085901e-01	1.704699e-02
26            	4.014210e-02	-2.978191e-02	6.992400e-02	8.027801e-03	6.063827e-03	1.963974e-03	2.049926e-03	-4.985296e-02	1.456220e-01	3.260191e-01	3.086315e-01	1.738759e-02
27            	4.092891e-02	-2.922315e-02	7.015206e-02	8.551327e-03	6.175524e-03	2.375803e-03	1.899861e-03	-4.968760e-02	1.455876e-01	3.264085e-01	3.087919e-01	1.761667e-02
28            	4.132651e-02	-2.875410e-02	7.008061e-02	9.217625e-03	6.231780e-03	2.985845e-03	1.622967e-03	-4.941735e-02	1.455353e-01	3.265886e-01	3.088296e-01	1.775898e-02
29            	4.146995e-02	-2.831478e-02	6.978473e-02	9.979284e-03	6.251953e-03	3.727332e-03	1.262311e-03	-4.904975e-02	1.453607e-01	3.264220e-01	3.085717e-01	1.785028e-02
30            	4.143617e-02	-2.787651e-02	6.931269e-02	1.086511e-02	6.247129e-03	4.617986e-03	8.145714e-04	-4.859460e-02	1.451207e-01	3.260382e-01	3.081399e-01	1.789838e-02
31            	4.131947e-02	-2.745090e-02	6.877037e-02	1.177963e-02	6.230681e-03	5.548950e-03	3.408656e-04	-4.811064e-02	1.448925e-01	3.256235e-01	3.077043e-01	1.791928e-02
32            	4.105177e-02	-2.704067e-02	6.809244e-02	1.286167e-02	6.192684e-03	6.668983e-03	-2.381491e-04	-4.756655e-02	1.447723e-01	3.252994e-01	3.074220e-01	1.787738e-02
33            	4.066486e-02	-2.666744e-02	6.733231e-02	1.405753e-02	6.137607e-03	7.919918e-03	-8.911553e-04	-4.699987e-02	1.448267e-01	3.252045e-01	3.074290e-01	1.777555e-02
34            	4.011403e-02	-2.635873e-02	6.647276e-02	1.538252e-02	6.059285e-03	9.323239e-03	-1.631977e-03	-4.641575e-02	1.451137e-01	3.254170e-01	3.078223e-01	1.759477e-02
35            	3.938471e-02	-2.614363e-02	6.552835e-02	1.679267e-02	5.955654e-03	1.083702e-02	-2.440681e-03	-4.583599e-02	1.456651e-01	3.259925e-01	3.086614e-01	1.733108e-02
36            	3.844752e-02	-2.604711e-02	6.449463e-02	1.824927e-02	5.822461e-03	1.242681e-02	-3.302176e-03	-4.527087e-02	1.464661e-01	3.268880e-01	3.099101e-01	1.697788e-02
37            	3.730699e-02	-2.609464e-02	6.340164e-02	1.965151e-02	5.660543e-03	1.399096e-02	-4.165210e-03	-4.474814e-02	1.474741e-01	3.280326e-01	3.114904e-01	1.654215e-02
38            	3.600617e-02	-2.628777e-02	6.229394e-02	2.092239e-02	5.476041e-03	1.544635e-02	-4.985152e-03	-4.429085e-02	1.486545e-01	3.293958e-01	3.133524e-01	1.604338e-02
39            	3.458826e-02	-2.660635e-02	6.119461e-02	2.203064e-02	5.275049e-03	1.675559e-02	-5.740271e-03	-4.390048e-02	1.499431e-01	3.308876e-01	3.153869e-01	1.550072e-02
40            	3.316704e-02	-2.702338e-02	6.019043e-02	2.285596e-02	5.073626e-03	1.778233e-02	-6.354353e-03	-4.360691e-02	1.512219e-01	3.323566e-01	3.174002e-01	1.495640e-02
41            	3.185684e-02	-2.750891e-02	5.936575e-02	2.331637e-02	4.887868e-03	1.842850e-02	-6.770314e-03	-4.343733e-02	1.524328e-01	3.337666e-01	3.193161e-01	1.445052e-02
42            	3.072139e-02	-2.801312e-02	5.873451e-02	2.342124e-02	4.727139e-03	1.869410e-02	-6.983478e-03	-4.337381e-02	1.534442e-01	3.349043e-01	3.208963e-01	1.400797e-02
43            	2.980920e-02	-2.848509e-02	5.829430e-02	2.321738e-02	4.598115e-03	1.861927e-02	-7.010577e-03	-4.338970e-02	1.541628e-01	3.356202e-01	3.219729e-01	1.364728e-02
44            	2.915898e-02	-2.886754e-02	5.802651e-02	2.279959e-02	4.506140e-03	1.829345e-02	-6.893654e-03	-4.344703e-02	1.545297e-01	3.358225e-01	3.224410e-01	1.338155e-02
45            	2.877184e-02	-2.913161e-02	5.790345e-02	2.224814e-02	4.450838e-03	1.779730e-02	-6.673233e-03	-4.351753e-02	1.545358e-01	3.354912e-01	3.222814e-01	1.320979e-02
46            	2.863667e-02	-2.926022e-02	5.789689e-02	2.164483e-02	4.431177e-03	1.721365e-02	-6.391237e-03	-4.357855e-02	1.542163e-01	3.346842e-01	3.215584e-01	1.312582e-02
47            	2.868084e-02	-2.926093e-02	5.794177e-02	2.107924e-02	4.436549e-03	1.664269e-02	-6.103069e-03	-4.360135e-02	1.536156e-01	3.334391e-01	3.203351e-01	1.310400e-02
48            	2.880767e-02	-2.916724e-02	5.797491e-02	2.059979e-02	4.453836e-03	1.614595e-02	-5.846057e-03	-4.357107e-02	1.527766e-01	3.317759e-01	3.186645e-01	1.311131e-02
49            	2.894361e-02	-2.902224e-02	5.796585e-02	2.021049e-02	4.472314e-03	1.573818e-02	-5.632932e-03	-4.349404e-02	1.517952e-01	3.298317e-01	3.167111e-01	1.312066e-02
50            	2.905497e-02	-2.885180e-02	5.790677e-02	1.988903e-02	4.487458e-03	1.540157e-02	-5.457056e-03	-4.337928e-02	1.506999e-01	3.276434e-01	3.145217e-01	1.312177e-02
51            	2.915526e-02	-2.870196e-02	5.785722e-02	1.949015e-02	4.501096e-03	1.498905e-02	-5.243979e-03	-4.327959e-02	1.495120e-01	3.252646e-01	3.121443e-01	1.312026e-02
52            	2.926150e-02	-2.858524e-02	5.784675e-02	1.896299e-02	4.515731e-03	1.444726e-02	-4.965765e-03	-4.321600e-02	1.482571e-01	3.227599e-01	3.096371e-01	1.312284e-02
53            	2.938632e-02	-2.850643e-02	5.789276e-02	1.828170e-02	4.532763e-03	1.374893e-02	-4.608086e-03	-4.319959e-02	1.469549e-01	3.201784e-01	3.070442e-01	1.313427e-02
54            	2.952751e-02	-2.844430e-02	5.797181e-02	1.751768e-02	4.551977e-03	1.296571e-02	-4.206864e-03	-4.320805e-02	1.456252e-01	3.175573e-01	3.044038e-01	1.315342e-02
55            	2.968999e-02	-2.839103e-02	5.808102e-02	1.666703e-02	4.574353e-03	1.209268e-02	-3.759163e-03	-4.323602e-02	1.442260e-01	3.148197e-01	3.016358e-01	1.318387e-02
56            	2.989661e-02	-2.833252e-02	5.822913e-02	1.575097e-02	4.603275e-03	1.114770e-02	-3.272212e-03	-4.328082e-02	1.427689e-01	3.120031e-01	2.987705e-01	1.323262e-02
57            	3.014763e-02	-2.825706e-02	5.840468e-02	1.482007e-02	4.638604e-03	1.018146e-02	-2.771430e-03	-4.333087e-02	1.412898e-01	3.091761e-01	2.958779e-01	1.329820e-02
58            	3.043066e-02	-2.814954e-02	5.858019e-02	1.395952e-02	4.678369e-03	9.281155e-03	-2.301393e-03	-4.336487e-02	1.398449e-01	3.064394e-01	2.930647e-01	1.337479e-02
59            	3.071314e-02	-2.800855e-02	5.872169e-02	1.323539e-02	4.717810e-03	8.517584e-03	-1.899887e-03	-4.336512e-02	1.384815e-01	3.038628e-01	2.904129e-01	1.344989e-02
60            	3.099114e-02	-2.782800e-02	5.881915e-02	1.268693e-02	4.756382e-03	7.930544e-03	-1.587081e-03	-4.332357e-02	1.372379e-01	3.015182e-01	2.879970e-01	1.352121e-02
61            	3.125113e-02	-2.761080e-02	5.886193e-02	1.234116e-02	4.792256e-03	7.548908e-03	-1.378326e-03	-4.323637e-02	1.361543e-01	2.994745e-01	2.858915e-01	1.358295e-02
62            	3.147777e-02	-2.736005e-02	5.883783e-02	1.221765e-02	4.823277e-03	7.394376e-03	-1.285549e-03	-4.309894e-02	1.352519e-01	2.977635e-01	2.841336e-01	1.362988e-02
63            	3.164392e-02	-2.708830e-02	5.873222e-02	1.231318e-02	4.845729e-03	7.467450e-03	-1.310860e-03	-4.291026e-02	1.345362e-01	2.963799e-01	2.827262e-01	1.365374e-02
64            	3.175762e-02	-2.680855e-02	5.856617e-02	1.257382e-02	4.860726e-03	7.713094e-03	-1.426184e-03	-4.268736e-02	1.339987e-01	2.953137e-01	2.816555e-01	1.365816e-02
65            	3.181879e-02	-2.653640e-02	5.835518e-02	1.294205e-02	4.868220e-03	8.073833e-03	-1.602806e-03	-4.244579e-02	1.336196e-01	2.945267e-01	2.808830e-01	1.364373e-02
66            	3.183132e-02	-2.627233e-02	5.810365e-02	1.339814e-02	4.868783e-03	8.529352e-03	-1.830285e-03	-4.218799e-02	1.333802e-01	2.939841e-01	2.803723e-01	1.361181e-02
67            	3.181241e-02	-2.599960e-02	5.781201e-02	1.395384e-02	4.864864e-03	9.088974e-03	-2.112055e-03	-4.190581e-02	1.332615e-01	2.936597e-01	2.800913e-01	1.356835e-02
68            	3.179764e-02	-2.568470e-02	5.748234e-02	1.463717e-02	4.861478e-03	9.775696e-03	-2.457109e-03	-4.158352e-02	1.332240e-01	2.935019e-01	2.799749e-01	1.352694e-02
69            	3.180783e-02	-2.530925e-02	5.711708e-02	1.545836e-02	4.861571e-03	1.059678e-02	-2.867607e-03	-4.121316e-02	1.332402e-01	2.934726e-01	2.799765e-01	1.349606e-02
70            	3.185461e-02	-2.487834e-02	5.673295e-02	1.637484e-02	4.866812e-03	1.150803e-02	-3.320607e-03	-4.080564e-02	1.332827e-01	2.935266e-01	2.800460e-01	1.348054e-02
71            	3.194581e-02	-2.440061e-02	5.634642e-02	1.734584e-02	4.878335e-03	1.246751e-02	-3.794587e-03	-4.037352e-02	1.333400e-01	2.936479e-01	2.801639e-01	1.348395e-02
72            	3.208695e-02	-2.389790e-02	5.598485e-02	1.830094e-02	4.896931e-03	1.340401e-02	-4.253537e-03	-3.994138e-02	1.334026e-01	2.938230e-01	2.803141e-01	1.350886e-02
73            	3.226211e-02	-2.339797e-02	5.566008e-02	1.918210e-02	4.920533e-03	1.426156e-02	-4.670516e-03	-3.952902e-02	1.334649e-01	2.940300e-01	2.804799e-01	1.355017e-02
74            	3.248795e-02	-2.291526e-02	5.540321e-02	1.993258e-02	4.951461e-03	1.498112e-02	-5.014829e-03	-3.915923e-02	1.335222e-01	2.942694e-01	2.806568e-01	1.361251e-02
75            	3.275505e-02	-2.246376e-02	5.521881e-02	2.051626e-02	4.988342e-03	1.552791e-02	-5.269785e-03	-3.884129e-02	1.335443e-01	2.944747e-01	2.807817e-01	1.369307e-02
76            	3.304197e-02	-2.206225e-02	5.510421e-02	2.091381e-02	5.028256e-03	1.588555e-02	-5.428649e-03	-3.858323e-02	1.335274e-01	2.946232e-01	2.808389e-01	1.378422e-02
77            	3.331301e-02	-2.173102e-02	5.504403e-02	2.112664e-02	5.066184e-03	1.606046e-02	-5.497138e-03	-3.838753e-02	1.334894e-01	2.947250e-01	2.808519e-01	1.387307e-02
78            	3.355432e-02	-2.146956e-02	5.502388e-02	2.118679e-02	5.100036e-03	1.608676e-02	-5.493361e-03	-3.824672e-02	1.334529e-01	2.948134e-01	2.808596e-01	1.395382e-02
79            	3.375532e-02	-2.126775e-02	5.502306e-02	2.113888e-02	5.128407e-03	1.601047e-02	-5.441030e-03	-3.814541e-02	1.334221e-01	2.948875e-01	2.808659e-01	1.402164e-02
80            	3.392557e-02	-2.111214e-02	5.503770e-02	2.100693e-02	5.152591e-03	1.585434e-02	-5.350876e-03	-3.807492e-02	1.333972e-01	2.949520e-01	2.808732e-01	1.407883e-02
81            	3.405726e-02	-2.099849e-02	5.505575e-02	2.081097e-02	5.171420e-03	1.563955e-02	-5.234063e-03	-3.802712e-02	1.333757e-01	2.949961e-01	2.808738e-01	1.412239e-02
82            	3.415356e-02	-2.092536e-02	5.507892e-02	2.054482e-02	5.185395e-03	1.535943e-02	-5.087017e-03	-3.800214e-02	1.333472e-01	2.949997e-01	2.808471e-01	1.415264e-02
83            	3.421033e-02	-2.089150e-02	5.510183e-02	2.021097e-02	5.193893e-03	1.501708e-02	-4.911591e-03	-3.799667e-02	1.333015e-01	2.949378e-01	2.807704e-01	1.416743e-02
84            	3.423465e-02	-2.089101e-02	5.512566e-02	1.980826e-02	5.197766e-03	1.461049e-02	-4.706364e-03	-3.800834e-02	1.332196e-01	2.947767e-01	2.806080e-01	1.416874e-02
85            	3.422947e-02	-2.091516e-02	5.514463e-02	1.935872e-02	5.197551e-03	1.416117e-02	-4.481809e-03	-3.802989e-02	1.330969e-01	2.945087e-01	2.803513e-01	1.415743e-02
86            	3.420419e-02	-2.095701e-02	5.516120e-02	1.886638e-02	5.194400e-03	1.367198e-02	-4.238789e-03	-3.805911e-02	1.329188e-01	2.941109e-01	2.799742e-01	1.413672e-02
87            	3.415947e-02	-2.101411e-02	5.517358e-02	1.833705e-02	5.188420e-03	1.314863e-02	-3.980105e-03	-3.809384e-02	1.326791e-01	2.935715e-01	2.794648e-01	1.410662e-02
88            	3.410473e-02	-2.108383e-02	5.518856e-02	1.776697e-02	5.180931e-03	1.258604e-02	-3.702554e-03	-3.813619e-02	1.323723e-01	2.928849e-01	2.788147e-01	1.407019e-02
89            	3.403371e-02	-2.117605e-02	5.520976e-02	1.715195e-02	5.170802e-03	1.198115e-02	-3.405175e-03	-3.819291e-02	1.320279e-01	2.921053e-01	2.780805e-01	1.402478e-02
90            	3.394703e-02	-2.128502e-02	5.523205e-02	1.651030e-02	5.158063e-03	1.135224e-02	-3.097089e-03	-3.825853e-02	1.316535e-01	2.912482e-01	2.772776e-01	1.397063e-02
91            	3.384170e-02	-2.140757e-02	5.524927e-02	1.585499e-02	5.142367e-03	1.071263e-02	-2.785129e-03	-3.832842e-02	1.312481e-01	2.903109e-01	2.764035e-01	1.390735e-02
92            	3.372459e-02	-2.153084e-02	5.525543e-02	1.521073e-02	5.124551e-03	1.008618e-02	-2.480813e-03	-3.839313e-02	1.308066e-01	2.892897e-01	2.754515e-01	1.383822e-02
93            	3.359757e-02	-2.164780e-02	5.524538e-02	1.458898e-02	5.105042e-03	9.483935e-03	-2.189447e-03	-3.844659e-02	1.303181e-01	2.881671e-01	2.744016e-01	1.376546e-02
94            	3.346065e-02	-2.174762e-02	5.520827e-02	1.400664e-02	5.083879e-03	8.922763e-03	-1.919442e-03	-3.847795e-02	1.297652e-01	2.869119e-01	2.732211e-01	1.369077e-02
95            	3.332625e-02	-2.181808e-02	5.514434e-02	1.347144e-02	5.063040e-03	8.408398e-03	-1.672679e-03	-3.848121e-02	1.291317e-01	2.855026e-01	2.718831e-01	1.361958e-02
96            	3.320815e-02	-2.184964e-02	5.505779e-02	1.298842e-02	5.044503e-03	7.943921e-03	-1.449709e-03	-3.845371e-02	1.284130e-01	2.839397e-01	2.703829e-01	1.355682e-02
97            	3.312109e-02	-2.184028e-02	5.496136e-02	1.254550e-02	5.030476e-03	7.515027e-03	-1.242276e-03	-3.840082e-02	1.276119e-01	2.822391e-01	2.687315e-01	1.350766e-02
98            	3.307604e-02	-2.179029e-02	5.486633e-02	1.213278e-02	5.022461e-03	7.110316e-03	-1.043927e-03	-3.832831e-02	1.267377e-01	2.804258e-01	2.669506e-01	1.347521e-02
99            	3.307923e-02	-2.171069e-02	5.478992e-02	1.171840e-02	5.021428e-03	6.696977e-03	-8.377746e-04	-3.825030e-02	1.258027e-01	2.785267e-01	2.650661e-01	1.346061e-02
100           	3.314079e-02	-2.160188e-02	5.474268e-02	1.129870e-02	5.028628e-03	6.270070e-03	-6.207209e-04	-3.817228e-02	1.248247e-01	2.765832e-01	2.631163e-01	1.346691e-02
101           	3.327014e-02	-2.146133e-02	5.473147e-02	1.087785e-02	5.045485e-03	5.832367e-03	-3.934411e-04	-3.809640e-02	1.238192e-01	2.746322e-01	2.611353e-01	1.349686e-02
102           	3.348375e-02	-2.128296e-02	5.476671e-02	1.046484e-02	5.074234e-03	5.390609e-03	-1.581878e-04	-3.802484e-02	1.228082e-01	2.727280e-01	2.591722e-01	1.355580e-02
103           	3.378144e-02	-2.107107e-02	5.485251e-02	1.005377e-02	5.115090e-03	4.938677e-03	8.820668e-05	-3.796179e-02	1.218077e-01	2.709011e-01	2.572582e-01	1.364289e-02
104           	3.416059e-02	-2.082977e-02	5.499036e-02	9.646266e-03	5.167649e-03	4.478616e-03	3.445165e-04	-3.791007e-02	1.208430e-01	2.691989e-01	2.554424e-01	1.375645e-02
105           	3.462206e-02	-2.056157e-02	5.518362e-02	9.241828e-03	5.232104e-03	4.009725e-03	6.111894e-04	-3.787259e-02	1.199342e-01	2.676590e-01	2.537637e-01	1.389529e-02
106           	3.516821e-02	-2.027169e-02	5.543990e-02	8.831262e-03	5.308708e-03	3.522554e-03	8.930773e-04	-3.785580e-02	1.191002e-01	2.663183e-01	2.522594e-01	1.405892e-02
107           	3.579649e-02	-1.996287e-02	5.575936e-02	8.413216e-03	5.397018e-03	3.016198e-03	1.190410e-03	-3.786112e-02	1.183521e-01	2.651951e-01	2.509497e-01	1.424546e-02
108           	3.649786e-02	-1.963516e-02	5.613302e-02	8.003479e-03	5.495709e-03	2.507769e-03	1.493970e-03	-3.788409e-02	1.177021e-01	2.643056e-01	2.498549e-01	1.445072e-02
109           	3.726248e-02	-1.928904e-02	5.655152e-02	7.611700e-03	5.603355e-03	2.008345e-03	1.797505e-03	-3.792028e-02	1.171526e-01	2.636463e-01	2.489757e-01	1.467054e-02
110           	3.806809e-02	-1.893216e-02	5.700025e-02	7.237485e-03	5.716798e-03	1.520687e-03	2.098056e-03	-3.796621e-02	1.166980e-01	2.631898e-01	2.482929e-01	1.489690e-02
111           	3.889618e-02	-1.856568e-02	5.746186e-02	6.894671e-03	5.833434e-03	1.061237e-03	2.386099e-03	-3.801377e-02	1.163318e-01	2.629102e-01	2.477869e-01	1.512330e-02
112           	3.974098e-02	-1.818583e-02	5.792681e-02	6.589332e-03	5.952560e-03	6.367714e-04	2.657894e-03	-3.805632e-02	1.160358e-01	2.627679e-01	2.474197e-01	1.534819e-02
113           	4.059779e-02	-1.779909e-02	5.839689e-02	6.305796e-03	6.073459e-03	2.323364e-04	2.920562e-03	-3.809799e-02	1.158038e-01	2.627486e-01	2.471781e-01	1.557049e-02
114           	4.146310e-02	-1.740713e-02	5.887023e-02	6.037492e-03	6.195590e-03	-1.580989e-04	3.176845e-03	-3.813868e-02	1.156198e-01	2.628192e-01	2.470294e-01	1.578987e-02
115           	4.232075e-02	-1.701173e-02	5.933248e-02	5.801633e-03	6.316640e-03	-5.150063e-04	3.415823e-03	-3.817210e-02	1.154837e-01	2.629714e-01	2.469694e-01	1.600201e-02
116           	4.315328e-02	-1.662221e-02	5.977550e-02	5.590043e-03	6.434150e-03	-8.441066e-04	3.639128e-03	-3.819886e-02	1.153847e-01	2.631748e-01	2.469721e-01	1.620272e-02
117           	4.394873e-02	-1.625291e-02	6.020164e-02	5.376710e-03	6.546516e-03	-1.169806e-03	3.858161e-03	-3.822727e-02	1.153173e-01	2.634141e-01	2.470244e-01	1.638970e-02
118           	4.469304e-02	-1.591745e-02	6.061048e-02	5.128406e-03	6.651779e-03	-1.523373e-03	4.087576e-03	-3.826396e-02	1.152606e-01	2.636425e-01	2.470819e-01	1.656065e-02
119           	4.536530e-02	-1.562265e-02	6.098795e-02	4.845084e-03	6.746984e-03	-1.901901e-03	4.324443e-03	-3.830530e-02	1.151982e-01	2.638191e-01	2.471078e-01	1.671130e-02
120           	4.596166e-02	-1.536911e-02	6.133077e-02	4.522568e-03	6.831522e-03	-2.308953e-03	4.570237e-03	-3.834994e-02	1.151137e-01	2.639124e-01	2.470699e-01	1.684250e-02
121           	4.648730e-02	-1.515340e-02	6.164070e-02	4.164959e-03	6.906030e-03	-2.741071e-03	4.823551e-03	-3.839705e-02	1.149987e-01	2.639132e-01	2.469553e-01	1.695789e-02
122           	4.693927e-02	-1.497342e-02	6.191269e-02	3.775720e-03	6.970089e-03	-3.194369e-03	5.082229e-03	-3.844306e-02	1.148371e-01	2.637902e-01	2.467322e-01	1.705796e-02
123           	4.730828e-02	-1.483240e-02	6.214068e-02	3.364974e-03	7.022337e-03	-3.657363e-03	5.339850e-03	-3.848654e-02	1.146359e-01	2.635531e-01	2.464125e-01	1.714061e-02
124           	4.758030e-02	-1.473784e-02	6.231814e-02	2.933930e-03	7.060747e-03	-4.126817e-03	5.593782e-03	-3.852799e-02	1.144003e-01	2.632040e-01	2.460023e-01	1.720176e-02
125           	4.775517e-02	-1.468904e-02	6.244421e-02	2.493409e-03	7.085279e-03	-4.591870e-03	5.838575e-03	-3.856663e-02	1.141396e-01	2.627629e-01	2.455211e-01	1.724180e-02
126           	4.782459e-02	-1.468701e-02	6.251160e-02	2.049558e-03	7.094698e-03	-5.045140e-03	6.069919e-03	-3.859930e-02	1.138523e-01	2.622203e-01	2.449624e-01	1.725788e-02
127           	4.779319e-02	-1.473143e-02	6.252462e-02	1.606766e-03	7.089636e-03	-5.482871e-03	6.286254e-03	-3.862803e-02	1.135540e-01	2.616090e-01	2.443585e-01	1.725054e-02
128           	4.766350e-02	-1.482089e-02	6.248439e-02	1.166957e-03	7.070475e-03	-5.903519e-03	6.486997e-03	-3.865264e-02	1.132475e-01	2.609336e-01	2.437143e-01	1.721931e-02
129           	4.744685e-02	-1.495829e-02	6.240514e-02	7.160545e-04	7.038767e-03	-6.322712e-03	6.680740e-03	-3.868171e-02	1.129481e-01	2.602288e-01	2.430625e-01	1.716624e-02
130           	4.716886e-02	-1.513179e-02	6.230065e-02	2.575481e-04	6.998252e-03	-6.740704e-03	6.869478e-03	-3.871622e-02	1.126539e-01	2.595039e-01	2.424059e-01	1.709807e-02
131           	4.684591e-02	-1.533377e-02	6.217968e-02	-1.935664e-04	6.951392e-03	-7.144958e-03	7.048175e-03	-3.875672e-02	1.123859e-01	2.588089e-01	2.417904e-01	1.701852e-02
132           	4.648913e-02	-1.555847e-02	6.204761e-02	-6.267135e-04	6.899814e-03	-7.526527e-03	7.213171e-03	-3.880304e-02	1.121589e-01	2.581772e-01	2.412475e-01	1.692967e-02
133           	4.611422e-02	-1.579496e-02	6.190918e-02	-1.020645e-03	6.845854e-03	-7.866499e-03	7.356176e-03	-3.885207e-02	1.119932e-01	2.576546e-01	2.408205e-01	1.683415e-02
134           	4.572094e-02	-1.604037e-02	6.176132e-02	-1.367565e-03	6.789428e-03	-8.156993e-03	7.473211e-03	-3.890085e-02	1.118913e-01	2.572441e-01	2.405133e-01	1.673077e-02
135           	4.532355e-02	-1.629525e-02	6.161880e-02	-1.683904e-03	6.732589e-03	-8.416493e-03	7.574541e-03	-3.895703e-02	1.118609e-01	2.569680e-01	2.403449e-01	1.662311e-02
136           	4.492859e-02	-1.655465e-02	6.148324e-02	-1.974003e-03	6.676228e-03	-8.650230e-03	7.663229e-03	-3.901895e-02	1.118892e-01	2.568054e-01	2.402920e-01	1.651346e-02
137           	4.455336e-02	-1.681219e-02	6.136555e-02	-2.257222e-03	6.622856e-03	-8.880078e-03	7.751467e-03	-3.908887e-02	1.119523e-01	2.567202e-01	2.403125e-01	1.640779e-02
138           	4.421361e-02	-1.705958e-02	6.127319e-02	-2.544284e-03	6.574742e-03	-9.119027e-03	7.846885e-03	-3.916638e-02	1.120345e-01	2.566943e-01	2.403817e-01	1.631266e-02
139           	4.393304e-02	-1.729256e-02	6.122560e-02	-2.866201e-03	6.535181e-03	-9.401381e-03	7.968281e-03	-3.925908e-02	1.121147e-01	2.567037e-01	2.404666e-01	1.623714e-02
140           	4.372849e-02	-1.750391e-02	6.123240e-02	-3.239432e-03	6.506406e-03	-9.745837e-03	8.126121e-03	-3.936816e-02	1.121706e-01	2.567184e-01	2.405298e-01	1.618859e-02
141           	4.360333e-02	-1.768985e-02	6.129317e-02	-3.674565e-03	6.488956e-03	-1.016352e-02	8.326238e-03	-3.949151e-02	1.121768e-01	2.566929e-01	2.405233e-01	1.616961e-02
142           	4.355493e-02	-1.784864e-02	6.140357e-02	-4.178581e-03	6.482516e-03	-1.066110e-02	8.571807e-03	-3.962610e-02	1.121119e-01	2.565854e-01	2.404046e-01	1.618081e-02
143           	4.357845e-02	-1.797664e-02	6.155509e-02	-4.742425e-03	6.486397e-03	-1.122882e-02	8.857610e-03	-3.976587e-02	1.119636e-01	2.563686e-01	2.401479e-01	1.622067e-02
144           	4.366211e-02	-1.807044e-02	6.173254e-02	-5.344612e-03	6.498871e-03	-1.184348e-02	9.171176e-03	-3.990149e-02	1.117260e-01	2.560225e-01	2.397372e-01	1.628531e-02
145           	4.379289e-02	-1.812985e-02	6.192274e-02	-5.960387e-03	6.518031e-03	-1.247842e-02	9.498225e-03	-4.002630e-02	1.114105e-01	2.555593e-01	2.391901e-01	1.636915e-02
146           	4.397862e-02	-1.815104e-02	6.212966e-02	-6.583795e-03	6.545007e-03	-1.312880e-02	9.836904e-03	-4.014035e-02	1.110241e-01	2.549955e-01	2.385218e-01	1.647365e-02
147           	4.422000e-02	-1.813119e-02	6.235119e-02	-7.189433e-03	6.579915e-03	-1.376935e-02	1.017463e-02	-4.024119e-02	1.105907e-01	2.543759e-01	2.377786e-01	1.659722e-02
148           	4.450997e-02	-1.807007e-02	6.258005e-02	-7.759423e-03	6.621772e-03	-1.438119e-02	1.050148e-02	-4.032506e-02	1.101240e-01	2.537201e-01	2.369841e-01	1.673602e-02
149           	4.484501e-02	-1.797023e-02	6.281523e-02	-8.287407e-03	6.670023e-03	-1.495743e-02	1.081373e-02	-4.039273e-02	1.096371e-01	2.530490e-01	2.361616e-01	1.688740e-02
150           	4.521512e-02	-1.783819e-02	6.305331e-02	-8.774539e-03	6.723253e-03	-1.549779e-02	1.111052e-02	-4.044575e-02	1.091420e-01	2.523772e-01	2.353306e-01	1.704656e-02
151           	4.561129e-02	-1.768302e-02	6.329430e-02	-9.223170e-03	6.780186e-03	-1.600336e-02	1.139177e-02	-4.048866e-02	1.086585e-01	2.517348e-01	2.345259e-01	1.720887e-02
152           	4.601899e-02	-1.751333e-02	6.353232e-02	-9.633858e-03	6.838773e-03	-1.647263e-02	1.165570e-02	-4.052282e-02	1.082009e-01	2.511377e-01	2.337697e-01	1.736798e-02
153           	4.642125e-02	-1.733953e-02	6.376078e-02	-1.000667e-02	6.896575e-03	-1.690324e-02	1.189991e-02	-4.055015e-02	1.077852e-01	2.506047e-01	2.330875e-01	1.751717e-02
154           	4.680168e-02	-1.716486e-02	6.396653e-02	-1.033459e-02	6.951245e-03	-1.728584e-02	1.211854e-02	-4.056569e-02	1.074103e-01	2.501212e-01	2.324709e-01	1.765029e-02
155           	4.713849e-02	-1.699911e-02	6.413759e-02	-1.061303e-02	6.999742e-03	-1.761278e-02	1.230626e-02	-4.056835e-02	1.070865e-01	2.496930e-01	2.319330e-01	1.776002e-02
156           	4.741905e-02	-1.684157e-02	6.426062e-02	-1.083189e-02	7.040317e-03	-1.787220e-02	1.245626e-02	-4.055110e-02	1.068049e-01	2.492943e-01	2.314520e-01	1.784222e-02
157           	4.764044e-02	-1.669468e-02	6.433512e-02	-1.099477e-02	7.072667e-03	-1.806743e-02	1.257005e-02	-4.051490e-02	1.065633e-01	2.489204e-01	2.310235e-01	1.789686e-02
158           	4.780817e-02	-1.655122e-02	6.435940e-02	-1.110250e-02	7.097594e-03	-1.820009e-02	1.264884e-02	-4.045531e-02	1.063432e-01	2.485394e-01	2.306129e-01	1.792645e-02
159           	4.791509e-02	-1.641793e-02	6.433302e-02	-1.116602e-02	7.114089e-03	-1.828011e-02	1.269710e-02	-4.037548e-02	1.061447e-01	2.481484e-01	2.302189e-01	1.792954e-02
160           	4.795491e-02	-1.630259e-02	6.425750e-02	-1.120570e-02	7.121270e-03	-1.832697e-02	1.272412e-02	-4.028004e-02	1.059598e-01	2.477286e-01	2.298241e-01	1.790447e-02
161           	4.791887e-02	-1.622193e-02	6.414080e-02	-1.124799e-02	7.117827e-03	-1.836582e-02	1.274182e-02	-4.018137e-02	1.058002e-01	2.472979e-01	2.294491e-01	1.784879e-02
162           	4.780169e-02	-1.618200e-02	6.398369e-02	-1.130899e-02	7.103003e-03	-1.841199e-02	1.275750e-02	-4.008284e-02	1.056596e-01	2.468422e-01	2.290807e-01	1.776148e-02
163           	4.760934e-02	-1.618345e-02	6.379278e-02	-1.139193e-02	7.077517e-03	-1.846945e-02	1.277348e-02	-3.998812e-02	1.055448e-01	2.463796e-01	2.287346e-01	1.764500e-02
164           	4.733824e-02	-1.622892e-02	6.356715e-02	-1.150354e-02	7.040880e-03	-1.854442e-02	1.279265e-02	-3.989803e-02	1.054530e-01	2.459035e-01	2.284047e-01	1.749880e-02
165           	4.698641e-02	-1.631960e-02	6.330601e-02	-1.164884e-02	6.992642e-03	-1.864148e-02	1.281706e-02	-3.981280e-02	1.053817e-01	2.454087e-01	2.280860e-01	1.732271e-02
166           	4.655651e-02	-1.645257e-02	6.300907e-02	-1.182955e-02	6.933232e-03	-1.876278e-02	1.284801e-02	-3.973082e-02	1.053206e-01	2.448779e-01	2.277595e-01	1.711840e-02
167           	4.605479e-02	-1.663187e-02	6.268666e-02	-1.205917e-02	6.863312e-03	-1.892248e-02	1.289290e-02	-3.965926e-02	1.052727e-01	2.443206e-01	2.274330e-01	1.688764e-02
168           	4.550183e-02	-1.685350e-02	6.235533e-02	-1.235718e-02	6.785807e-03	-1.914298e-02	1.296439e-02	-3.960442e-02	1.052239e-01	2.437208e-01	2.270843e-01	1.663651e-02