# Force and moment coefficients
# dragDir     : (1.000000e+00 0.000000e+00 0.000000e+00)
# sideDir     : (0.000000e+00 1.000000e+00 0.000000e+00)
# liftDir     : (0.000000e+00 0.000000e+00 1.000000e+00)
# rollAxis    : (1.000000e+00 0.000000e+00 0.000000e+00)
# pitchAxis   : (0.000000e+00 1.000000e+00 0.000000e+00)
# yawAxis     : (0.000000e+00 0.000000e+00 1.000000e+00)
# magUInf     : 1.750000e+01
# lRef        : 1.854000e+00
# Aref        : 6.450000e-01
# CofR        : (0.000000e+00 0.000000e+00 0.000000e+00)
#
# Time        	Cd            	Cd(f)         	Cd(r)         	Cl            	Cl(f)         	Cl(r)         	CmPitch       	CmRoll        	CmYaw         	Cs            	Cs(f)         	Cs(r)         
1             	2.477919e-01	-1.353759e-01	3.831678e-01	-6.846599e-01	-5.745786e-01	-1.100814e-01	-2.322486e-01	-2.592718e-01	4.137230e-02	5.059160e-01	2.943303e-01	2.115857e-01
2             	3.852984e-01	-2.188291e-01	6.041275e-01	-4.564609e-01	-4.379226e-01	-1.853837e-02	-2.096921e-01	-4.114783e-01	6.776154e-02	1.171947e+00	6.537351e-01	5.182120e-01
3             	5.204856e-01	-2.904391e-01	8.109248e-01	-2.285241e-01	-3.150748e-01	8.655072e-02	-2.008128e-01	-5.506820e-01	9.195426e-02	1.787094e+00	9.855011e-01	8.015925e-01
4             	5.858870e-01	-3.440795e-01	9.299664e-01	-5.354527e-02	-2.417201e-01	1.881748e-01	-2.149474e-01	-6.370230e-01	1.154632e-01	2.181230e+00	1.206078e+00	9.751519e-01
5             	5.555265e-01	-3.805806e-01	9.361071e-01	5.200412e-02	-2.245077e-01	2.765118e-01	-2.505098e-01	-6.583438e-01	1.384673e-01	2.305077e+00	1.291006e+00	1.014071e+00
6             	4.467957e-01	-4.016566e-01	8.484523e-01	9.985894e-02	-2.504124e-01	3.502713e-01	-3.003419e-01	-6.250544e-01	1.588790e-01	2.204566e+00	1.261162e+00	9.434038e-01
7             	3.049606e-01	-4.094032e-01	7.143638e-01	1.100292e-01	-2.983389e-01	4.083681e-01	-3.533535e-01	-5.618835e-01	1.737266e-01	1.979829e+00	1.163641e+00	8.161879e-01
8             	1.782041e-01	-4.043541e-01	5.825582e-01	1.149541e-01	-3.458923e-01	4.608463e-01	-4.033693e-01	-4.934561e-01	1.811661e-01	1.737118e+00	1.049725e+00	6.873931e-01
9             	1.023986e-01	-3.891260e-01	4.915246e-01	1.272222e-01	-3.764961e-01	5.037183e-01	-4.401072e-01	-4.403253e-01	1.807148e-01	1.555272e+00	9.583509e-01	5.969213e-01
10            	9.096832e-02	-3.665554e-01	4.575237e-01	1.518817e-01	-3.805051e-01	5.323867e-01	-4.564459e-01	-4.120396e-01	1.737220e-01	1.470675e+00	9.090593e-01	5.616153e-01
11            	1.336472e-01	-3.408265e-01	4.744737e-01	1.889660e-01	-3.608844e-01	5.498504e-01	-4.553674e-01	-4.076501e-01	1.629435e-01	1.479469e+00	9.026780e-01	5.767910e-01
12            	2.066336e-01	-3.167216e-01	5.233552e-01	2.316991e-01	-3.256761e-01	5.573752e-01	-4.415256e-01	-4.200384e-01	1.508927e-01	1.550961e+00	9.263730e-01	6.245876e-01
13            	2.821885e-01	-2.974369e-01	5.796253e-01	2.777225e-01	-2.843129e-01	5.620353e-01	-4.231741e-01	-4.385311e-01	1.400547e-01	1.645469e+00	9.627890e-01	6.826796e-01
14            	3.391511e-01	-2.846329e-01	6.237840e-01	3.224201e-01	-2.422966e-01	5.647167e-01	-4.035066e-01	-4.542085e-01	1.310287e-01	1.728361e+00	9.952090e-01	7.331516e-01
15            	3.669943e-01	-2.783210e-01	6.453153e-01	3.621901e-01	-2.040023e-01	5.661924e-01	-3.850973e-01	-4.618182e-01	1.239898e-01	1.779243e+00	1.013611e+00	7.656315e-01
16            	3.662946e-01	-2.768772e-01	6.431719e-01	3.963980e-01	-1.715148e-01	5.679127e-01	-3.697138e-01	-4.600246e-01	1.184575e-01	1.793296e+00	1.015105e+00	7.781905e-01
17            	3.456166e-01	-2.780575e-01	6.236741e-01	4.247965e-01	-1.452277e-01	5.700242e-01	-3.576260e-01	-4.508658e-01	1.138755e-01	1.778144e+00	1.002947e+00	7.751963e-01
18            	3.172582e-01	-2.794038e-01	5.966620e-01	4.481079e-01	-1.238720e-01	5.719799e-01	-3.479259e-01	-4.380329e-01	1.097655e-01	1.747379e+00	9.834551e-01	7.639241e-01
19            	2.922770e-01	-2.790016e-01	5.712786e-01	4.681531e-01	-1.053315e-01	5.734847e-01	-3.394081e-01	-4.251401e-01	1.058860e-01	1.714928e+00	9.633498e-01	7.515778e-01
20            	2.778828e-01	-2.757231e-01	5.536059e-01	4.877055e-01	-8.723075e-02	5.749363e-01	-3.310835e-01	-4.146645e-01	1.021859e-01	1.690990e+00	9.476809e-01	7.433090e-01
21            	2.763043e-01	-2.693575e-01	5.456618e-01	5.091341e-01	-6.796692e-02	5.771010e-01	-3.225340e-01	-4.075097e-01	9.868033e-02	1.679970e+00	9.386654e-01	7.413047e-01
22            	2.853233e-01	-2.607361e-01	5.460594e-01	5.333977e-01	-4.651846e-02	5.799162e-01	-3.132173e-01	-4.033978e-01	9.544499e-02	1.681134e+00	9.360119e-01	7.451220e-01
23            	3.005649e-01	-2.507791e-01	5.513440e-01	5.616941e-01	-2.265973e-02	5.843539e-01	-3.035068e-01	-4.010615e-01	9.255606e-02	1.690519e+00	9.378158e-01	7.527037e-01
24            	3.168528e-01	-2.408370e-01	5.576897e-01	5.926440e-01	2.419669e-03	5.902244e-01	-2.939023e-01	-3.992633e-01	9.008348e-02	1.702894e+00	9.415304e-01	7.613635e-01
25            	3.303839e-01	-2.318682e-01	5.622521e-01	6.243807e-01	2.746021e-02	5.969205e-01	-2.847301e-01	-3.970602e-01	8.801911e-02	1.713690e+00	9.448643e-01	7.688261e-01
26            	3.391681e-01	-2.244973e-01	5.636655e-01	6.542291e-01	5.037742e-02	6.038517e-01	-2.767371e-01	-3.940814e-01	8.635149e-02	1.720215e+00	9.464590e-01	7.737561e-01
27            	3.432734e-01	-2.187830e-01	5.620564e-01	6.801601e-01	7.005103e-02	6.101091e-01	-2.700290e-01	-3.904197e-01	8.503582e-02	1.721689e+00	9.458805e-01	7.758088e-01
28            	3.439930e-01	-2.144668e-01	5.584597e-01	7.011084e-01	8.583038e-02	6.152780e-01	-2.647238e-01	-3.864632e-01	8.407939e-02	1.718988e+00	9.435732e-01	7.754144e-01
29            	3.432791e-01	-2.111816e-01	5.544607e-01	7.161012e-01	9.772097e-02	6.183802e-01	-2.603296e-01	-3.828212e-01	8.337243e-02	1.713565e+00	9.401548e-01	7.734100e-01
30            	3.429360e-01	-2.082346e-01	5.511706e-01	7.267118e-01	1.063967e-01	6.203152e-01	-2.569592e-01	-3.797026e-01	8.294362e-02	1.707404e+00	9.366458e-01	7.707585e-01
31            	3.441402e-01	-2.056123e-01	5.497525e-01	7.314843e-01	1.110424e-01	6.204419e-01	-2.546997e-01	-3.776824e-01	8.283461e-02	1.701607e+00	9.336379e-01	7.679687e-01
32            	3.473967e-01	-2.029660e-01	5.503628e-01	7.324841e-01	1.138696e-01	6.186145e-01	-2.523724e-01	-3.766644e-01	8.275345e-02	1.697257e+00	9.313821e-01	7.658752e-01
33            	3.523907e-01	-2.004499e-01	5.528406e-01	7.298596e-01	1.145192e-01	6.153404e-01	-2.504106e-01	-3.766453e-01	8.278712e-02	1.694333e+00	9.299537e-01	7.643794e-01
34            	3.582935e-01	-1.980675e-01	5.563610e-01	7.254157e-01	1.142157e-01	6.112000e-01	-2.484921e-01	-3.772142e-01	8.284603e-02	1.692714e+00	9.292029e-01	7.635109e-01
35            	3.644396e-01	-1.958203e-01	5.602598e-01	7.203045e-01	1.137461e-01	6.065584e-01	-2.464062e-01	-3.780400e-01	8.280634e-02	1.692022e+00	9.288171e-01	7.632044e-01
36            	3.702340e-01	-1.937106e-01	5.639446e-01	7.154242e-01	1.136845e-01	6.017396e-01	-2.440275e-01	-3.788276e-01	8.261541e-02	1.691929e+00	9.285797e-01	7.633489e-01
37            	3.754001e-01	-1.917023e-01	5.671024e-01	7.113595e-01	1.142982e-01	5.970613e-01	-2.413816e-01	-3.794024e-01	8.224823e-02	1.692196e+00	9.283463e-01	7.638499e-01
38            	3.798989e-01	-1.897565e-01	5.696553e-01	7.083543e-01	1.161512e-01	5.922031e-01	-2.380260e-01	-3.797059e-01	8.161845e-02	1.692667e+00	9.279518e-01	7.647149e-01
39            	3.838617e-01	-1.878849e-01	5.717466e-01	7.060713e-01	1.189419e-01	5.871294e-01	-2.340938e-01	-3.798158e-01	8.070686e-02	1.693290e+00	9.273519e-01	7.659382e-01
40            	3.874515e-01	-1.860428e-01	5.734943e-01	7.044369e-01	1.223260e-01	5.821109e-01	-2.298925e-01	-3.797686e-01	7.955783e-02	1.694062e+00	9.265887e-01	7.674731e-01
41            	3.908664e-01	-1.843391e-01	5.752055e-01	7.024897e-01	1.258009e-01	5.766888e-01	-2.254439e-01	-3.797723e-01	7.814648e-02	1.695056e+00	9.256744e-01	7.693814e-01
42            	3.942870e-01	-1.828279e-01	5.771149e-01	6.994592e-01	1.290332e-01	5.704260e-01	-2.206964e-01	-3.799714e-01	7.646091e-02	1.696200e+00	9.245607e-01	7.716389e-01
43            	3.978272e-01	-1.816502e-01	5.794774e-01	6.944363e-01	1.316521e-01	5.627842e-01	-2.155660e-01	-3.805638e-01	7.454052e-02	1.697541e+00	9.233113e-01	7.742302e-01
44            	4.014219e-01	-1.808387e-01	5.822606e-01	6.874161e-01	1.335975e-01	5.538186e-01	-2.101105e-01	-3.815497e-01	7.247238e-02	1.698947e+00	9.219458e-01	7.770010e-01
45            	4.049616e-01	-1.804736e-01	5.854352e-01	6.782890e-01	1.347974e-01	5.434916e-01	-2.043471e-01	-3.829544e-01	7.036859e-02	1.700332e+00	9.205347e-01	7.797975e-01
46            	4.083430e-01	-1.805160e-01	5.888590e-01	6.673973e-01	1.354793e-01	5.319180e-01	-1.982193e-01	-3.846875e-01	6.832657e-02	1.701483e+00	9.190681e-01	7.824150e-01
47            	4.114857e-01	-1.809210e-01	5.924067e-01	6.551744e-01	1.360027e-01	5.191717e-01	-1.915845e-01	-3.866638e-01	6.642773e-02	1.702312e+00	9.175838e-01	7.847283e-01
48            	4.143460e-01	-1.815431e-01	5.958891e-01	6.423909e-01	1.369196e-01	5.054713e-01	-1.842758e-01	-3.887161e-01	6.470099e-02	1.702664e+00	9.160328e-01	7.866308e-01
49            	4.170049e-01	-1.824122e-01	5.994171e-01	6.287021e-01	1.382241e-01	4.904781e-01	-1.761270e-01	-3.909146e-01	6.313259e-02	1.702544e+00	9.144046e-01	7.881394e-01
50            	4.196309e-01	-1.834360e-01	6.030669e-01	6.142033e-01	1.396964e-01	4.745068e-01	-1.674052e-01	-3.932514e-01	6.168625e-02	1.701942e+00	9.126572e-01	7.892847e-01
51            	4.223353e-01	-1.846391e-01	6.069744e-01	5.985316e-01	1.409089e-01	4.576227e-01	-1.583569e-01	-3.958067e-01	6.032525e-02	1.700914e+00	9.107823e-01	7.901318e-01
52            	4.252279e-01	-1.859604e-01	6.111883e-01	5.818219e-01	1.413292e-01	4.404927e-01	-1.495818e-01	-3.985744e-01	5.906558e-02	1.699563e+00	9.088473e-01	7.907162e-01
53            	4.283595e-01	-1.873766e-01	6.157361e-01	5.641956e-01	1.405615e-01	4.236340e-01	-1.415362e-01	-4.015564e-01	5.795396e-02	1.697967e+00	9.069374e-01	7.910295e-01
54            	4.317010e-01	-1.887370e-01	6.204380e-01	5.464866e-01	1.387316e-01	4.077550e-01	-1.345117e-01	-4.045875e-01	5.701175e-02	1.696139e+00	9.050810e-01	7.910575e-01
55            	4.352464e-01	-1.900038e-01	6.252502e-01	5.289380e-01	1.359748e-01	3.929633e-01	-1.284943e-01	-4.076270e-01	5.626555e-02	1.694176e+00	9.033534e-01	7.908223e-01
56            	4.389496e-01	-1.911033e-01	6.300530e-01	5.119424e-01	1.324071e-01	3.795353e-01	-1.235641e-01	-4.105782e-01	5.570073e-02	1.691994e+00	9.016976e-01	7.902962e-01
57            	4.428497e-01	-1.920354e-01	6.348851e-01	4.953982e-01	1.281668e-01	3.672313e-01	-1.195322e-01	-4.134602e-01	5.528703e-02	1.689604e+00	9.000888e-01	7.895147e-01
58            	4.469688e-01	-1.926469e-01	6.396157e-01	4.800358e-01	1.236447e-01	3.563911e-01	-1.163732e-01	-4.161313e-01	5.494317e-02	1.686978e+00	8.984323e-01	7.885460e-01
59            	4.513950e-01	-1.928527e-01	6.442477e-01	4.660863e-01	1.190806e-01	3.470057e-01	-1.139625e-01	-4.185502e-01	5.455070e-02	1.684081e+00	8.965914e-01	7.874900e-01
60            	4.561904e-01	-1.926015e-01	6.487918e-01	4.536078e-01	1.146264e-01	3.389814e-01	-1.121775e-01	-4.206966e-01	5.399019e-02	1.680897e+00	8.944387e-01	7.864583e-01
61            	4.613819e-01	-1.918633e-01	6.532452e-01	4.426954e-01	1.102713e-01	3.324241e-01	-1.110764e-01	-4.225542e-01	5.321739e-02	1.677441e+00	8.919379e-01	7.855031e-01
62            	4.669356e-01	-1.906752e-01	6.576109e-01	4.332532e-01	1.060180e-01	3.272352e-01	-1.106086e-01	-4.241430e-01	5.220125e-02	1.673763e+00	8.890827e-01	7.846802e-01
63            	4.728154e-01	-1.890106e-01	6.618260e-01	4.256105e-01	1.020153e-01	3.235952e-01	-1.107899e-01	-4.254183e-01	5.095762e-02	1.669996e+00	8.859557e-01	7.840404e-01
64            	4.789248e-01	-1.869479e-01	6.658727e-01	4.196084e-01	9.822336e-02	3.213850e-01	-1.115808e-01	-4.264103e-01	4.954487e-02	1.666245e+00	8.826675e-01	7.835778e-01
65            	4.851100e-01	-1.846003e-01	6.697103e-01	4.150985e-01	9.467401e-02	3.204244e-01	-1.128752e-01	-4.271553e-01	4.806979e-02	1.662636e+00	8.793880e-01	7.832484e-01
66            	4.912818e-01	-1.821545e-01	6.734363e-01	4.114631e-01	9.113915e-02	3.203239e-01	-1.145924e-01	-4.277954e-01	4.659167e-02	1.659359e+00	8.762710e-01	7.830877e-01
67            	4.973640e-01	-1.795776e-01	6.769416e-01	4.092041e-01	8.804739e-02	3.211567e-01	-1.165547e-01	-4.282596e-01	4.515224e-02	1.656587e+00	8.734460e-01	7.831415e-01
68            	5.033532e-01	-1.767600e-01	6.801132e-01	4.089413e-01	8.592317e-02	3.230181e-01	-1.185475e-01	-4.284366e-01	4.372989e-02	1.654370e+00	8.709148e-01	7.834550e-01
69            	5.092226e-01	-1.737191e-01	6.829417e-01	4.105108e-01	8.466671e-02	3.258440e-01	-1.205887e-01	-4.283304e-01	4.228013e-02	1.652711e+00	8.686355e-01	7.840753e-01
70            	5.149315e-01	-1.703505e-01	6.852820e-01	4.144780e-01	8.460488e-02	3.298731e-01	-1.226341e-01	-4.278163e-01	4.078048e-02	1.651589e+00	8.665749e-01	7.850140e-01
71            	5.204220e-01	-1.666078e-01	6.870298e-01	4.211268e-01	8.594235e-02	3.351845e-01	-1.246211e-01	-4.268188e-01	3.920456e-02	1.651048e+00	8.647284e-01	7.863193e-01
72            	5.256134e-01	-1.624681e-01	6.880815e-01	4.306984e-01	8.894883e-02	3.417496e-01	-1.264004e-01	-4.252748e-01	3.759600e-02	1.651144e+00	8.631681e-01	7.879761e-01
73            	5.304074e-01	-1.579987e-01	6.884061e-01	4.429232e-01	9.349359e-02	3.494296e-01	-1.279680e-01	-4.232024e-01	3.601293e-02	1.651806e+00	8.619157e-01	7.898899e-01
74            	5.347542e-01	-1.533131e-01	6.880673e-01	4.571555e-01	9.945751e-02	3.576980e-01	-1.291203e-01	-4.206902e-01	3.453619e-02	1.652979e+00	8.610255e-01	7.919532e-01
75            	5.386332e-01	-1.485196e-01	6.871527e-01	4.727178e-01	1.066221e-01	3.660957e-01	-1.297368e-01	-4.178361e-01	3.318332e-02	1.654505e+00	8.604360e-01	7.940693e-01
76            	5.420422e-01	-1.438698e-01	6.859120e-01	4.880521e-01	1.143577e-01	3.736943e-01	-1.296683e-01	-4.148909e-01	3.197950e-02	1.656284e+00	8.601216e-01	7.961626e-01
77            	5.450376e-01	-1.395197e-01	6.845572e-01	5.020649e-01	1.220927e-01	3.799723e-01	-1.289398e-01	-4.120384e-01	3.091387e-02	1.658143e+00	8.599855e-01	7.981578e-01
78            	5.476440e-01	-1.356719e-01	6.833159e-01	5.135311e-01	1.291218e-01	3.844093e-01	-1.276437e-01	-4.094939e-01	2.999604e-02	1.659973e+00	8.599823e-01	7.999903e-01
79            	5.498876e-01	-1.324220e-01	6.823095e-01	5.219171e-01	1.350837e-01	3.868334e-01	-1.258749e-01	-4.073657e-01	2.921068e-02	1.661687e+00	8.600543e-01	8.016330e-01
80            	5.517826e-01	-1.298202e-01	6.816029e-01	5.270190e-01	1.398442e-01	3.871747e-01	-1.236653e-01	-4.057115e-01	2.855349e-02	1.663269e+00	8.601882e-01	8.030812e-01
81            	5.533417e-01	-1.278389e-01	6.811806e-01	5.291165e-01	1.435703e-01	3.855462e-01	-1.209879e-01	-4.045098e-01	2.803383e-02	1.664685e+00	8.603766e-01	8.043089e-01
82            	5.546095e-01	-1.264488e-01	6.810582e-01	5.284257e-01	1.462792e-01	3.821466e-01	-1.179337e-01	-4.037535e-01	2.763268e-02	1.665963e+00	8.606143e-01	8.053489e-01
83            	5.556324e-01	-1.256225e-01	6.812549e-01	5.250842e-01	1.480768e-01	3.770074e-01	-1.144653e-01	-4.034387e-01	2.733870e-02	1.667071e+00	8.608741e-01	8.061967e-01
84            	5.564261e-01	-1.253275e-01	6.817536e-01	5.193576e-01	1.490332e-01	3.703243e-01	-1.106456e-01	-4.035406e-01	2.711950e-02	1.668007e+00	8.611228e-01	8.068838e-01
85            	5.570284e-01	-1.255291e-01	6.825575e-01	5.113905e-01	1.491071e-01	3.622834e-01	-1.065882e-01	-4.040433e-01	2.696295e-02	1.668765e+00	8.613453e-01	8.074194e-01
86            	5.574587e-01	-1.262079e-01	6.836666e-01	5.012419e-01	1.481820e-01	3.530598e-01	-1.024389e-01	-4.049373e-01	2.685450e-02	1.669236e+00	8.614727e-01	8.077637e-01
87            	5.577691e-01	-1.272736e-01	6.850427e-01	4.893157e-01	1.463769e-01	3.429388e-01	-9.828092e-02	-4.061582e-01	2.679223e-02	1.669436e+00	8.615101e-01	8.079256e-01
88            	5.579853e-01	-1.286372e-01	6.866224e-01	4.761106e-01	1.438541e-01	3.322565e-01	-9.420122e-02	-4.076298e-01	2.675841e-02	1.669388e+00	8.614525e-01	8.079356e-01
89            	5.581103e-01	-1.302177e-01	6.883280e-01	4.620378e-01	1.407587e-01	3.212790e-01	-9.026017e-02	-4.092729e-01	2.672215e-02	1.669085e+00	8.612644e-01	8.078201e-01
90            	5.581371e-01	-1.319102e-01	6.900472e-01	4.478605e-01	1.373497e-01	3.105108e-01	-8.658053e-02	-4.109787e-01	2.666504e-02	1.668609e+00	8.609694e-01	8.076393e-01
91            	5.581029e-01	-1.335870e-01	6.916899e-01	4.341883e-01	1.338701e-01	3.003182e-01	-8.322408e-02	-4.126384e-01	2.654927e-02	1.667963e+00	8.605310e-01	8.074325e-01
92            	5.580007e-01	-1.351748e-01	6.931755e-01	4.216137e-01	1.305184e-01	2.910953e-01	-8.028848e-02	-4.141751e-01	2.638084e-02	1.667208e+00	8.599847e-01	8.072230e-01
93            	5.578373e-01	-1.365883e-01	6.944256e-01	4.106007e-01	1.275389e-01	2.830618e-01	-7.776148e-02	-4.155069e-01	2.614828e-02	1.666326e+00	8.593114e-01	8.070148e-01
94            	5.576947e-01	-1.377791e-01	6.954738e-01	4.012089e-01	1.249377e-01	2.762712e-01	-7.566673e-02	-4.166264e-01	2.584436e-02	1.665326e+00	8.585075e-01	8.068188e-01
95            	5.576613e-01	-1.386687e-01	6.963300e-01	3.935863e-01	1.228171e-01	2.707692e-01	-7.397604e-02	-4.174994e-01	2.546341e-02	1.664150e+00	8.575384e-01	8.066115e-01
96            	5.577735e-01	-1.392495e-01	6.970229e-01	3.877044e-01	1.212177e-01	2.664866e-01	-7.263445e-02	-4.181362e-01	2.501867e-02	1.662846e+00	8.564418e-01	8.064045e-01
97            	5.580411e-01	-1.395426e-01	6.975836e-01	3.834403e-01	1.201153e-01	2.633250e-01	-7.160485e-02	-4.185631e-01	2.452450e-02	1.661450e+00	8.552494e-01	8.062004e-01
98            	5.584420e-01	-1.395845e-01	6.980265e-01	3.807297e-01	1.194551e-01	2.612746e-01	-7.090976e-02	-4.188055e-01	2.402143e-02	1.660052e+00	8.540475e-01	8.060047e-01
99            	5.589799e-01	-1.394691e-01	6.984490e-01	3.791650e-01	1.190461e-01	2.601189e-01	-7.053642e-02	-4.189590e-01	2.351463e-02	1.658749e+00	8.528891e-01	8.058598e-01
100           	5.596700e-01	-1.391421e-01	6.988121e-01	3.790594e-01	1.190702e-01	2.599892e-01	-7.045952e-02	-4.189771e-01	2.299993e-02	1.657609e+00	8.518043e-01	8.058045e-01
101           	5.605033e-01	-1.385743e-01	6.990777e-01	3.805604e-01	1.195261e-01	2.610343e-01	-7.075407e-02	-4.188260e-01	2.247807e-02	1.656617e+00	8.507866e-01	8.058305e-01
102           	5.613939e-01	-1.377841e-01	6.991780e-01	3.838870e-01	1.204200e-01	2.634670e-01	-7.152352e-02	-4.184810e-01	2.200740e-02	1.655910e+00	8.499624e-01	8.059476e-01
103           	5.621796e-01	-1.368145e-01	6.989941e-01	3.891685e-01	1.217678e-01	2.674006e-01	-7.281639e-02	-4.179043e-01	2.163970e-02	1.655473e+00	8.493764e-01	8.060970e-01
104           	5.628529e-01	-1.356617e-01	6.985145e-01	3.964862e-01	1.236396e-01	2.728466e-01	-7.460352e-02	-4.170881e-01	2.137675e-02	1.655396e+00	8.490746e-01	8.063210e-01
105           	5.634037e-01	-1.343375e-01	6.977412e-01	4.058176e-01	1.260518e-01	2.797659e-01	-7.685706e-02	-4.160393e-01	2.120380e-02	1.655739e+00	8.490731e-01	8.066655e-01
106           	5.639295e-01	-1.328324e-01	6.967619e-01	4.169162e-01	1.290274e-01	2.878888e-01	-7.943067e-02	-4.147971e-01	2.112176e-02	1.656579e+00	8.494111e-01	8.071675e-01
107           	5.645673e-01	-1.311283e-01	6.956956e-01	4.292880e-01	1.325709e-01	2.967171e-01	-8.207313e-02	-4.134120e-01	2.110667e-02	1.657847e+00	8.500302e-01	8.078169e-01
108           	5.653793e-01	-1.292538e-01	6.946331e-01	4.424197e-01	1.366903e-01	3.057294e-01	-8.451954e-02	-4.119434e-01	2.116326e-02	1.659466e+00	8.508964e-01	8.085698e-01
109           	5.663468e-01	-1.272363e-01	6.935831e-01	4.559997e-01	1.413529e-01	3.146468e-01	-8.664698e-02	-4.104097e-01	2.130329e-02	1.661318e+00	8.519622e-01	8.093556e-01
110           	5.674919e-01	-1.250494e-01	6.925413e-01	4.697137e-01	1.465697e-01	3.231440e-01	-8.828712e-02	-4.087954e-01	2.148274e-02	1.663148e+00	8.530569e-01	8.100914e-01
111           	5.687623e-01	-1.227496e-01	6.915118e-01	4.829990e-01	1.520961e-01	3.309029e-01	-8.940341e-02	-4.071307e-01	2.164411e-02	1.664690e+00	8.539890e-01	8.107007e-01
112           	5.701226e-01	-1.203714e-01	6.904940e-01	4.954118e-01	1.576292e-01	3.377826e-01	-9.007672e-02	-4.054327e-01	2.171162e-02	1.665674e+00	8.545484e-01	8.111252e-01
113           	5.715177e-01	-1.179484e-01	6.894661e-01	5.066983e-01	1.629151e-01	3.437833e-01	-9.043411e-02	-4.037072e-01	2.157137e-02	1.665914e+00	8.545282e-01	8.113855e-01
114           	5.729867e-01	-1.155121e-01	6.884988e-01	5.162768e-01	1.676975e-01	3.485793e-01	-9.044092e-02	-4.020054e-01	2.111096e-02	1.665210e+00	8.537158e-01	8.114938e-01
115           	5.746133e-01	-1.130597e-01	6.876729e-01	5.239324e-01	1.718886e-01	3.520438e-01	-9.007763e-02	-4.003663e-01	2.024259e-02	1.663490e+00	8.519874e-01	8.115022e-01
116           	5.764118e-01	-1.106473e-01	6.870591e-01	5.291938e-01	1.752585e-01	3.539353e-01	-8.933843e-02	-3.988532e-01	1.894315e-02	1.660721e+00	8.493036e-01	8.114173e-01
117           	5.784368e-01	-1.083702e-01	6.868070e-01	5.316517e-01	1.775982e-01	3.540535e-01	-8.822766e-02	-3.975886e-01	1.727595e-02	1.657193e+00	8.458723e-01	8.113204e-01
118           	5.806452e-01	-1.062822e-01	6.869274e-01	5.312651e-01	1.787386e-01	3.525265e-01	-8.689397e-02	-3.966048e-01	1.531868e-02	1.652945e+00	8.417913e-01	8.111539e-01
119           	5.830097e-01	-1.044728e-01	6.874826e-01	5.279996e-01	1.786057e-01	3.493938e-01	-8.539405e-02	-3.959777e-01	1.317135e-02	1.648288e+00	8.373152e-01	8.109725e-01
120           	5.853846e-01	-1.029580e-01	6.883427e-01	5.223457e-01	1.773348e-01	3.450109e-01	-8.383805e-02	-3.956504e-01	1.092088e-02	1.643290e+00	8.325660e-01	8.107242e-01
121           	5.876464e-01	-1.018537e-01	6.895001e-01	5.143627e-01	1.749293e-01	3.394334e-01	-8.225202e-02	-3.956769e-01	8.670922e-03	1.638194e+00	8.277680e-01	8.104261e-01
122           	5.896654e-01	-1.010559e-01	6.907213e-01	5.051220e-01	1.718476e-01	3.332743e-01	-8.071335e-02	-3.958886e-01	6.468955e-03	1.633019e+00	8.229782e-01	8.100403e-01
123           	5.913218e-01	-1.006470e-01	6.919688e-01	4.947464e-01	1.681635e-01	3.265829e-01	-7.920971e-02	-3.963079e-01	4.368061e-03	1.627971e+00	8.183536e-01	8.096175e-01
124           	5.925347e-01	-1.004810e-01	6.930156e-01	4.841343e-01	1.642793e-01	3.198550e-01	-7.778788e-02	-3.967483e-01	2.380143e-03	1.622953e+00	8.138566e-01	8.090963e-01
125           	5.932670e-01	-1.004997e-01	6.937667e-01	4.737791e-01	1.604662e-01	3.133129e-01	-7.642332e-02	-3.971332e-01	5.466084e-04	1.618104e+00	8.095985e-01	8.085053e-01
126           	5.935155e-01	-1.005669e-01	6.940824e-01	4.643154e-01	1.569897e-01	3.073257e-01	-7.516803e-02	-3.973246e-01	-1.091354e-03	1.613359e+00	8.055881e-01	8.077708e-01
127           	5.934028e-01	-1.006494e-01	6.940522e-01	4.558754e-01	1.538665e-01	3.020089e-01	-7.407117e-02	-3.973508e-01	-2.465981e-03	1.608926e+00	8.019969e-01	8.069289e-01
128           	5.930028e-01	-1.006884e-01	6.936912e-01	4.487273e-01	1.511080e-01	2.976193e-01	-7.325563e-02	-3.971898e-01	-3.576348e-03	1.604831e+00	7.988392e-01	8.059919e-01
129           	5.924619e-01	-1.006940e-01	6.931560e-01	4.427264e-01	1.486639e-01	2.940625e-01	-7.269931e-02	-3.969250e-01	-4.395378e-03	1.601276e+00	7.962429e-01	8.050336e-01
130           	5.918676e-01	-1.005897e-01	6.924573e-01	4.379943e-01	1.465739e-01	2.914205e-01	-7.242328e-02	-3.965235e-01	-4.922555e-03	1.598172e+00	7.941633e-01	8.040084e-01
131           	5.913638e-01	-1.003575e-01	6.917213e-01	4.342494e-01	1.447184e-01	2.895310e-01	-7.240626e-02	-3.960394e-01	-5.156791e-03	1.595464e+00	7.925753e-01	8.028889e-01
132           	5.909450e-01	-9.999210e-02	6.909371e-01	4.314036e-01	1.430503e-01	2.883532e-01	-7.265145e-02	-3.954646e-01	-5.159077e-03	1.592996e+00	7.913390e-01	8.016572e-01
133           	5.907072e-01	-9.948983e-02	6.901970e-01	4.292338e-01	1.414015e-01	2.878323e-01	-7.321542e-02	-3.948434e-01	-4.985134e-03	1.590767e+00	7.903981e-01	8.003684e-01
134           	5.905507e-01	-9.890246e-02	6.894532e-01	4.275520e-01	1.396887e-01	2.878633e-01	-7.408729e-02	-3.941778e-01	-4.709500e-03	1.588613e+00	7.895970e-01	7.990160e-01
135           	5.904481e-01	-9.825799e-02	6.887061e-01	4.263200e-01	1.378386e-01	2.884815e-01	-7.532146e-02	-3.934820e-01	-4.359600e-03	1.586544e+00	7.889124e-01	7.976316e-01
136           	5.903448e-01	-9.760503e-02	6.879498e-01	4.254445e-01	1.359872e-01	2.894573e-01	-7.673505e-02	-3.927774e-01	-3.958722e-03	1.584591e+00	7.883370e-01	7.962544e-01
137           	5.902411e-01	-9.698233e-02	6.872234e-01	4.247779e-01	1.340553e-01	2.907226e-01	-7.833366e-02	-3.921029e-01	-3.501962e-03	1.582837e+00	7.879164e-01	7.949204e-01
138           	5.901414e-01	-9.641734e-02	6.865588e-01	4.241435e-01	1.321690e-01	2.919745e-01	-7.990278e-02	-3.914881e-01	-3.001148e-03	1.581316e+00	7.876566e-01	7.936589e-01
139           	5.901550e-01	-9.591273e-02	6.860678e-01	4.232546e-01	1.302668e-01	2.929877e-01	-8.136044e-02	-3.909902e-01	-2.479360e-03	1.580077e+00	7.875592e-01	7.925180e-01
140           	5.903551e-01	-9.549423e-02	6.858494e-01	4.217312e-01	1.283595e-01	2.933717e-01	-8.250613e-02	-3.906718e-01	-1.976624e-03	1.579117e+00	7.875816e-01	7.915349e-01
141           	5.908324e-01	-9.516045e-02	6.859928e-01	4.192910e-01	1.264260e-01	2.928649e-01	-8.321944e-02	-3.905766e-01	-1.484846e-03	1.578449e+00	7.877395e-01	7.907092e-01
142           	5.915717e-01	-9.491432e-02	6.864860e-01	4.158138e-01	1.245572e-01	2.912566e-01	-8.334969e-02	-3.907002e-01	-1.012057e-03	1.577964e+00	7.879701e-01	7.899942e-01
143           	5.925330e-01	-9.479760e-02	6.873306e-01	4.110575e-01	1.226863e-01	2.883712e-01	-8.284247e-02	-3.910641e-01	-5.364561e-04	1.577610e+00	7.882686e-01	7.893415e-01
144           	5.936609e-01	-9.483292e-02	6.884938e-01	4.050469e-01	1.207363e-01	2.843106e-01	-8.178717e-02	-3.916634e-01	-5.238340e-05	1.577380e+00	7.886374e-01	7.887421e-01
145           	5.948423e-01	-9.507409e-02	6.899164e-01	3.977646e-01	1.186083e-01	2.791563e-01	-8.027399e-02	-3.924952e-01	4.498597e-04	1.577257e+00	7.890785e-01	7.881788e-01
146           	5.960312e-01	-9.551135e-02	6.915426e-01	3.894638e-01	1.162181e-01	2.732457e-01	-7.851378e-02	-3.935270e-01	9.768823e-04	1.577243e+00	7.895985e-01	7.876447e-01
147           	5.971323e-01	-9.612699e-02	6.932592e-01	3.805088e-01	1.136123e-01	2.668965e-01	-7.664214e-02	-3.946931e-01	1.510077e-03	1.577299e+00	7.901595e-01	7.871394e-01
148           	5.981107e-01	-9.686928e-02	6.949800e-01	3.713524e-01	1.108757e-01	2.604767e-01	-7.480047e-02	-3.959246e-01	2.053569e-03	1.577452e+00	7.907797e-01	7.866725e-01
149           	5.989312e-01	-9.772102e-02	6.966522e-01	3.621147e-01	1.079953e-01	2.541194e-01	-7.306202e-02	-3.971866e-01	2.597616e-03	1.577660e+00	7.914274e-01	7.862322e-01
150           	5.995563e-01	-9.866416e-02	6.982205e-01	3.530901e-01	1.050426e-01	2.480475e-01	-7.150249e-02	-3.984423e-01	3.127916e-03	1.577965e+00	7.921104e-01	7.858546e-01
151           	6.000040e-01	-9.964129e-02	6.996453e-01	3.444497e-01	1.020568e-01	2.423929e-01	-7.016802e-02	-3.996433e-01	3.637214e-03	1.578312e+00	7.927933e-01	7.855189e-01
152           	6.003221e-01	-1.005833e-01	7.009053e-01	3.364850e-01	9.914706e-02	2.373379e-01	-6.909542e-02	-4.007443e-01	4.107522e-03	1.578678e+00	7.934463e-01	7.852313e-01
153           	6.005349e-01	-1.014266e-01	7.019614e-01	3.293300e-01	9.638954e-02	2.329404e-01	-6.827546e-02	-4.016940e-01	4.547618e-03	1.578976e+00	7.940358e-01	7.849406e-01
154           	6.006414e-01	-1.021129e-01	7.027543e-01	3.233014e-01	9.389098e-02	2.294104e-01	-6.775972e-02	-4.024336e-01	4.942364e-03	1.579159e+00	7.945217e-01	7.846370e-01
155           	6.006028e-01	-1.026240e-01	7.032268e-01	3.184943e-01	9.170122e-02	2.267931e-01	-6.754595e-02	-4.029254e-01	5.285201e-03	1.579172e+00	7.948714e-01	7.843010e-01
156           	6.003878e-01	-1.029504e-01	7.033382e-01	3.150974e-01	8.988956e-02	2.252078e-01	-6.765911e-02	-4.031443e-01	5.552304e-03	1.579009e+00	7.950566e-01	7.839520e-01
157           	5.999663e-01	-1.030781e-01	7.030445e-01	3.131711e-01	8.857030e-02	2.246008e-01	-6.801527e-02	-4.030613e-01	5.733231e-03	1.578635e+00	7.950509e-01	7.835845e-01
158           	5.993163e-01	-1.029640e-01	7.022803e-01	3.129574e-01	8.795356e-02	2.250039e-01	-6.852516e-02	-4.026222e-01	5.814395e-03	1.578024e+00	7.948263e-01	7.831975e-01
159           	5.984665e-01	-1.025723e-01	7.010388e-01	3.144594e-01	8.815302e-02	2.263064e-01	-6.907667e-02	-4.018056e-01	5.815286e-03	1.577138e+00	7.943842e-01	7.827536e-01
160           	5.974884e-01	-1.018455e-01	6.993340e-01	3.177101e-01	8.925186e-02	2.284582e-01	-6.960318e-02	-4.005898e-01	5.740454e-03	1.575906e+00	7.936933e-01	7.822124e-01
161           	5.965188e-01	-1.007487e-01	6.972675e-01	3.225911e-01	9.120148e-02	2.313896e-01	-7.009406e-02	-3.990081e-01	5.615335e-03	1.574363e+00	7.927967e-01	7.815661e-01
162           	5.956948e-01	-9.934998e-02	6.950448e-01	3.284094e-01	9.373001e-02	2.346794e-01	-7.047469e-02	-3.971974e-01	5.424032e-03	1.572597e+00	7.917226e-01	7.808745e-01
163           	5.951996e-01	-9.766198e-02	6.928616e-01	3.348795e-01	9.664232e-02	2.382372e-01	-7.079742e-02	-3.952618e-01	5.164433e-03	1.570765e+00	7.905472e-01	7.802183e-01
164           	5.951503e-01	-9.577723e-02	6.909276e-01	3.412464e-01	9.959574e-02	2.416507e-01	-7.102747e-02	-3.933524e-01	4.837198e-03	1.568920e+00	7.892971e-01	7.796227e-01
165           	5.956363e-01	-9.369608e-02	6.893324e-01	3.474648e-01	1.024880e-01	2.449768e-01	-7.124441e-02	-3.915142e-01	4.442703e-03	1.567096e+00	7.879908e-01	7.791054e-01
166           	5.966319e-01	-9.154013e-02	6.881721e-01	3.529033e-01	1.050146e-01	2.478887e-01	-7.143703e-02	-3.898561e-01	3.988844e-03	1.565265e+00	7.866212e-01	7.786435e-01
167           	5.981117e-01	-8.931495e-02	6.874267e-01	3.575925e-01	1.071892e-01	2.504033e-01	-7.160707e-02	-3.883708e-01	3.490564e-03	1.563331e+00	7.851563e-01	7.781751e-01
168           	5.999632e-01	-8.711778e-02	6.870810e-01	3.610845e-01	1.088752e-01	2.522094e-01	-7.166710e-02	-3.870994e-01	2.980914e-03	1.561166e+00	7.835640e-01	7.776022e-01